# vtk DataFile Version 2.0
Particulate Flow Equations Solution
ASCII
DATASET STRUCTURED_GRID
DIMENSIONS 26 26 1
POINTS 676 double
-10 -10 0
-9.23077 -10 0
-8.46154 -10 0
-7.69231 -10 0
-6.92308 -10 0
-6.15385 -10 0
-5.38462 -10 0
-4.61538 -10 0
-3.84615 -10 0
-3.07692 -10 0
-2.30769 -10 0
-1.53846 -10 0
-0.769231 -10 0
5.55112e-016 -10 0
0.769231 -10 0
1.53846 -10 0
2.30769 -10 0
3.07692 -10 0
3.84615 -10 0
4.61538 -10 0
5.38462 -10 0
6.15385 -10 0
6.92308 -10 0
7.69231 -10 0
8.46154 -10 0
10 -10 0
-10 -9.23077 0
-9.23077 -9.23077 0
-8.46154 -9.23077 0
-7.69231 -9.23077 0
-6.92308 -9.23077 0
-6.15385 -9.23077 0
-5.38462 -9.23077 0
-4.61538 -9.23077 0
-3.84615 -9.23077 0
-3.07692 -9.23077 0
-2.30769 -9.23077 0
-1.53846 -9.23077 0
-0.769231 -9.23077 0
5.55112e-016 -9.23077 0
0.769231 -9.23077 0
1.53846 -9.23077 0
2.30769 -9.23077 0
3.07692 -9.23077 0
3.84615 -9.23077 0
4.61538 -9.23077 0
5.38462 -9.23077 0
6.15385 -9.23077 0
6.92308 -9.23077 0
7.69231 -9.23077 0
8.46154 -9.23077 0
10 -9.23077 0
-10 -8.46154 0
-9.23077 -8.46154 0
-8.46154 -8.46154 0
-7.69231 -8.46154 0
-6.92308 -8.46154 0
-6.15385 -8.46154 0
-5.38462 -8.46154 0
-4.61538 -8.46154 0
-3.84615 -8.46154 0
-3.07692 -8.46154 0
-2.30769 -8.46154 0
-1.53846 -8.46154 0
-0.769231 -8.46154 0
5.55112e-016 -8.46154 0
0.769231 -8.46154 0
1.53846 -8.46154 0
2.30769 -8.46154 0
3.07692 -8.46154 0
3.84615 -8.46154 0
4.61538 -8.46154 0
5.38462 -8.46154 0
6.15385 -8.46154 0
6.92308 -8.46154 0
7.69231 -8.46154 0
8.46154 -8.46154 0
10 -8.46154 0
-10 -7.69231 0
-9.23077 -7.69231 0
-8.46154 -7.69231 0
-7.69231 -7.69231 0
-6.92308 -7.69231 0
-6.15385 -7.69231 0
-5.38462 -7.69231 0
-4.61538 -7.69231 0
-3.84615 -7.69231 0
-3.07692 -7.69231 0
-2.30769 -7.69231 0
-1.53846 -7.69231 0
-0.769231 -7.69231 0
5.55112e-016 -7.69231 0
0.769231 -7.69231 0
1.53846 -7.69231 0
2.30769 -7.69231 0
3.07692 -7.69231 0
3.84615 -7.69231 0
4.61538 -7.69231 0
5.38462 -7.69231 0
6.15385 -7.69231 0
6.92308 -7.69231 0
7.69231 -7.69231 0
8.46154 -7.69231 0
10 -7.69231 0
-10 -6.92308 0
-9.23077 -6.92308 0
-8.46154 -6.92308 0
-7.69231 -6.92308 0
-6.92308 -6.92308 0
-6.15385 -6.92308 0
-5.38462 -6.92308 0
-4.61538 -6.92308 0
-3.84615 -6.92308 0
-3.07692 -6.92308 0
-2.30769 -6.92308 0
-1.53846 -6.92308 0
-0.769231 -6.92308 0
5.55112e-016 -6.92308 0
0.769231 -6.92308 0
1.53846 -6.92308 0
2.30769 -6.92308 0
3.07692 -6.92308 0
3.84615 -6.92308 0
4.61538 -6.92308 0
5.38462 -6.92308 0
6.15385 -6.92308 0
6.92308 -6.92308 0
7.69231 -6.92308 0
8.46154 -6.92308 0
10 -6.92308 0
-10 -6.15385 0
-9.23077 -6.15385 0
-8.46154 -6.15385 0
-7.69231 -6.15385 0
-6.92308 -6.15385 0
-6.15385 -6.15385 0
-5.38462 -6.15385 0
-4.61538 -6.15385 0
-3.84615 -6.15385 0
-3.07692 -6.15385 0
-2.30769 -6.15385 0
-1.53846 -6.15385 0
-0.769231 -6.15385 0
5.55112e-016 -6.15385 0
0.769231 -6.15385 0
1.53846 -6.15385 0
2.30769 -6.15385 0
3.07692 -6.15385 0
3.84615 -6.15385 0
4.61538 -6.15385 0
5.38462 -6.15385 0
6.15385 -6.15385 0
6.92308 -6.15385 0
7.69231 -6.15385 0
8.46154 -6.15385 0
10 -6.15385 0
-10 -5.38462 0
-9.23077 -5.38462 0
-8.46154 -5.38462 0
-7.69231 -5.38462 0
-6.92308 -5.38462 0
-6.15385 -5.38462 0
-5.38462 -5.38462 0
-4.61538 -5.38462 0
-3.84615 -5.38462 0
-3.07692 -5.38462 0
-2.30769 -5.38462 0
-1.53846 -5.38462 0
-0.769231 -5.38462 0
5.55112e-016 -5.38462 0
0.769231 -5.38462 0
1.53846 -5.38462 0
2.30769 -5.38462 0
3.07692 -5.38462 0
3.84615 -5.38462 0
4.61538 -5.38462 0
5.38462 -5.38462 0
6.15385 -5.38462 0
6.92308 -5.38462 0
7.69231 -5.38462 0
8.46154 -5.38462 0
10 -5.38462 0
-10 -4.61538 0
-9.23077 -4.61538 0
-8.46154 -4.61538 0
-7.69231 -4.61538 0
-6.92308 -4.61538 0
-6.15385 -4.61538 0
-5.38462 -4.61538 0
-4.61538 -4.61538 0
-3.84615 -4.61538 0
-3.07692 -4.61538 0
-2.30769 -4.61538 0
-1.53846 -4.61538 0
-0.769231 -4.61538 0
5.55112e-016 -4.61538 0
0.769231 -4.61538 0
1.53846 -4.61538 0
2.30769 -4.61538 0
3.07692 -4.61538 0
3.84615 -4.61538 0
4.61538 -4.61538 0
5.38462 -4.61538 0
6.15385 -4.61538 0
6.92308 -4.61538 0
7.69231 -4.61538 0
8.46154 -4.61538 0
10 -4.61538 0
-10 -3.84615 0
-9.23077 -3.84615 0
-8.46154 -3.84615 0
-7.69231 -3.84615 0
-6.92308 -3.84615 0
-6.15385 -3.84615 0
-5.38462 -3.84615 0
-4.61538 -3.84615 0
-3.84615 -3.84615 0
-3.07692 -3.84615 0
-2.30769 -3.84615 0
-1.53846 -3.84615 0
-0.769231 -3.84615 0
5.55112e-016 -3.84615 0
0.769231 -3.84615 0
1.53846 -3.84615 0
2.30769 -3.84615 0
3.07692 -3.84615 0
3.84615 -3.84615 0
4.61538 -3.84615 0
5.38462 -3.84615 0
6.15385 -3.84615 0
6.92308 -3.84615 0
7.69231 -3.84615 0
8.46154 -3.84615 0
10 -3.84615 0
-10 -3.07692 0
-9.23077 -3.07692 0
-8.46154 -3.07692 0
-7.69231 -3.07692 0
-6.92308 -3.07692 0
-6.15385 -3.07692 0
-5.38462 -3.07692 0
-4.61538 -3.07692 0
-3.84615 -3.07692 0
-3.07692 -3.07692 0
-2.30769 -3.07692 0
-1.53846 -3.07692 0
-0.769231 -3.07692 0
5.55112e-016 -3.07692 0
0.769231 -3.07692 0
1.53846 -3.07692 0
2.30769 -3.07692 0
3.07692 -3.07692 0
3.84615 -3.07692 0
4.61538 -3.07692 0
5.38462 -3.07692 0
6.15385 -3.07692 0
6.92308 -3.07692 0
7.69231 -3.07692 0
8.46154 -3.07692 0
10 -3.07692 0
-10 -2.30769 0
-9.23077 -2.30769 0
-8.46154 -2.30769 0
-7.69231 -2.30769 0
-6.92308 -2.30769 0
-6.15385 -2.30769 0
-5.38462 -2.30769 0
-4.61538 -2.30769 0
-3.84615 -2.30769 0
-3.07692 -2.30769 0
-2.30769 -2.30769 0
-1.53846 -2.30769 0
-0.769231 -2.30769 0
5.55112e-016 -2.30769 0
0.769231 -2.30769 0
1.53846 -2.30769 0
2.30769 -2.30769 0
3.07692 -2.30769 0
3.84615 -2.30769 0
4.61538 -2.30769 0
5.38462 -2.30769 0
6.15385 -2.30769 0
6.92308 -2.30769 0
7.69231 -2.30769 0
8.46154 -2.30769 0
10 -2.30769 0
-10 -1.53846 0
-9.23077 -1.53846 0
-8.46154 -1.53846 0
-7.69231 -1.53846 0
-6.92308 -1.53846 0
-6.15385 -1.53846 0
-5.38462 -1.53846 0
-4.61538 -1.53846 0
-3.84615 -1.53846 0
-3.07692 -1.53846 0
-2.30769 -1.53846 0
-1.53846 -1.53846 0
-0.769231 -1.53846 0
5.55112e-016 -1.53846 0
0.769231 -1.53846 0
1.53846 -1.53846 0
2.30769 -1.53846 0
3.07692 -1.53846 0
3.84615 -1.53846 0
4.61538 -1.53846 0
5.38462 -1.53846 0
6.15385 -1.53846 0
6.92308 -1.53846 0
7.69231 -1.53846 0
8.46154 -1.53846 0
10 -1.53846 0
-10 -0.769231 0
-9.23077 -0.769231 0
-8.46154 -0.769231 0
-7.69231 -0.769231 0
-6.92308 -0.769231 0
-6.15385 -0.769231 0
-5.38462 -0.769231 0
-4.61538 -0.769231 0
-3.84615 -0.769231 0
-3.07692 -0.769231 0
-2.30769 -0.769231 0
-1.53846 -0.769231 0
-0.769231 -0.769231 0
5.55112e-016 -0.769231 0
0.769231 -0.769231 0
1.53846 -0.769231 0
2.30769 -0.769231 0
3.07692 -0.769231 0
3.84615 -0.769231 0
4.61538 -0.769231 0
5.38462 -0.769231 0
6.15385 -0.769231 0
6.92308 -0.769231 0
7.69231 -0.769231 0
8.46154 -0.769231 0
10 -0.769231 0
-10 5.55112e-016 0
-9.23077 5.55112e-016 0
-8.46154 5.55112e-016 0
-7.69231 5.55112e-016 0
-6.92308 5.55112e-016 0
-6.15385 5.55112e-016 0
-5.38462 5.55112e-016 0
-4.61538 5.55112e-016 0
-3.84615 5.55112e-016 0
-3.07692 5.55112e-016 0
-2.30769 5.55112e-016 0
-1.53846 5.55112e-016 0
-0.769231 5.55112e-016 0
5.55112e-016 5.55112e-016 0
0.769231 5.55112e-016 0
1.53846 5.55112e-016 0
2.30769 5.55112e-016 0
3.07692 5.55112e-016 0
3.84615 5.55112e-016 0
4.61538 5.55112e-016 0
5.38462 5.55112e-016 0
6.15385 5.55112e-016 0
6.92308 5.55112e-016 0
7.69231 5.55112e-016 0
8.46154 5.55112e-016 0
10 5.55112e-016 0
-10 0.769231 0
-9.23077 0.769231 0
-8.46154 0.769231 0
-7.69231 0.769231 0
-6.92308 0.769231 0
-6.15385 0.769231 0
-5.38462 0.769231 0
-4.61538 0.769231 0
-3.84615 0.769231 0
-3.07692 0.769231 0
-2.30769 0.769231 0
-1.53846 0.769231 0
-0.769231 0.769231 0
5.55112e-016 0.769231 0
0.769231 0.769231 0
1.53846 0.769231 0
2.30769 0.769231 0
3.07692 0.769231 0
3.84615 0.769231 0
4.61538 0.769231 0
5.38462 0.769231 0
6.15385 0.769231 0
6.92308 0.769231 0
7.69231 0.769231 0
8.46154 0.769231 0
10 0.769231 0
-10 1.53846 0
-9.23077 1.53846 0
-8.46154 1.53846 0
-7.69231 1.53846 0
-6.92308 1.53846 0
-6.15385 1.53846 0
-5.38462 1.53846 0
-4.61538 1.53846 0
-3.84615 1.53846 0
-3.07692 1.53846 0
-2.30769 1.53846 0
-1.53846 1.53846 0
-0.769231 1.53846 0
5.55112e-016 1.53846 0
0.769231 1.53846 0
1.53846 1.53846 0
2.30769 1.53846 0
3.07692 1.53846 0
3.84615 1.53846 0
4.61538 1.53846 0
5.38462 1.53846 0
6.15385 1.53846 0
6.92308 1.53846 0
7.69231 1.53846 0
8.46154 1.53846 0
10 1.53846 0
-10 2.30769 0
-9.23077 2.30769 0
-8.46154 2.30769 0
-7.69231 2.30769 0
-6.92308 2.30769 0
-6.15385 2.30769 0
-5.38462 2.30769 0
-4.61538 2.30769 0
-3.84615 2.30769 0
-3.07692 2.30769 0
-2.30769 2.30769 0
-1.53846 2.30769 0
-0.769231 2.30769 0
5.55112e-016 2.30769 0
0.769231 2.30769 0
1.53846 2.30769 0
2.30769 2.30769 0
3.07692 2.30769 0
3.84615 2.30769 0
4.61538 2.30769 0
5.38462 2.30769 0
6.15385 2.30769 0
6.92308 2.30769 0
7.69231 2.30769 0
8.46154 2.30769 0
10 2.30769 0
-10 3.07692 0
-9.23077 3.07692 0
-8.46154 3.07692 0
-7.69231 3.07692 0
-6.92308 3.07692 0
-6.15385 3.07692 0
-5.38462 3.07692 0
-4.61538 3.07692 0
-3.84615 3.07692 0
-3.07692 3.07692 0
-2.30769 3.07692 0
-1.53846 3.07692 0
-0.769231 3.07692 0
5.55112e-016 3.07692 0
0.769231 3.07692 0
1.53846 3.07692 0
2.30769 3.07692 0
3.07692 3.07692 0
3.84615 3.07692 0
4.61538 3.07692 0
5.38462 3.07692 0
6.15385 3.07692 0
6.92308 3.07692 0
7.69231 3.07692 0
8.46154 3.07692 0
10 3.07692 0
-10 3.84615 0
-9.23077 3.84615 0
-8.46154 3.84615 0
-7.69231 3.84615 0
-6.92308 3.84615 0
-6.15385 3.84615 0
-5.38462 3.84615 0
-4.61538 3.84615 0
-3.84615 3.84615 0
-3.07692 3.84615 0
-2.30769 3.84615 0
-1.53846 3.84615 0
-0.769231 3.84615 0
5.55112e-016 3.84615 0
0.769231 3.84615 0
1.53846 3.84615 0
2.30769 3.84615 0
3.07692 3.84615 0
3.84615 3.84615 0
4.61538 3.84615 0
5.38462 3.84615 0
6.15385 3.84615 0
6.92308 3.84615 0
7.69231 3.84615 0
8.46154 3.84615 0
10 3.84615 0
-10 4.61538 0
-9.23077 4.61538 0
-8.46154 4.61538 0
-7.69231 4.61538 0
-6.92308 4.61538 0
-6.15385 4.61538 0
-5.38462 4.61538 0
-4.61538 4.61538 0
-3.84615 4.61538 0
-3.07692 4.61538 0
-2.30769 4.61538 0
-1.53846 4.61538 0
-0.769231 4.61538 0
5.55112e-016 4.61538 0
0.769231 4.61538 0
1.53846 4.61538 0
2.30769 4.61538 0
3.07692 4.61538 0
3.84615 4.61538 0
4.61538 4.61538 0
5.38462 4.61538 0
6.15385 4.61538 0
6.92308 4.61538 0
7.69231 4.61538 0
8.46154 4.61538 0
10 4.61538 0
-10 5.38462 0
-9.23077 5.38462 0
-8.46154 5.38462 0
-7.69231 5.38462 0
-6.92308 5.38462 0
-6.15385 5.38462 0
-5.38462 5.38462 0
-4.61538 5.38462 0
-3.84615 5.38462 0
-3.07692 5.38462 0
-2.30769 5.38462 0
-1.53846 5.38462 0
-0.769231 5.38462 0
5.55112e-016 5.38462 0
0.769231 5.38462 0
1.53846 5.38462 0
2.30769 5.38462 0
3.07692 5.38462 0
3.84615 5.38462 0
4.61538 5.38462 0
5.38462 5.38462 0
6.15385 5.38462 0
6.92308 5.38462 0
7.69231 5.38462 0
8.46154 5.38462 0
10 5.38462 0
-10 6.15385 0
-9.23077 6.15385 0
-8.46154 6.15385 0
-7.69231 6.15385 0
-6.92308 6.15385 0
-6.15385 6.15385 0
-5.38462 6.15385 0
-4.61538 6.15385 0
-3.84615 6.15385 0
-3.07692 6.15385 0
-2.30769 6.15385 0
-1.53846 6.15385 0
-0.769231 6.15385 0
5.55112e-016 6.15385 0
0.769231 6.15385 0
1.53846 6.15385 0
2.30769 6.15385 0
3.07692 6.15385 0
3.84615 6.15385 0
4.61538 6.15385 0
5.38462 6.15385 0
6.15385 6.15385 0
6.92308 6.15385 0
7.69231 6.15385 0
8.46154 6.15385 0
10 6.15385 0
-10 6.92308 0
-9.23077 6.92308 0
-8.46154 6.92308 0
-7.69231 6.92308 0
-6.92308 6.92308 0
-6.15385 6.92308 0
-5.38462 6.92308 0
-4.61538 6.92308 0
-3.84615 6.92308 0
-3.07692 6.92308 0
-2.30769 6.92308 0
-1.53846 6.92308 0
-0.769231 6.92308 0
5.55112e-016 6.92308 0
0.769231 6.92308 0
1.53846 6.92308 0
2.30769 6.92308 0
3.07692 6.92308 0
3.84615 6.92308 0
4.61538 6.92308 0
5.38462 6.92308 0
6.15385 6.92308 0
6.92308 6.92308 0
7.69231 6.92308 0
8.46154 6.92308 0
10 6.92308 0
-10 7.69231 0
-9.23077 7.69231 0
-8.46154 7.69231 0
-7.69231 7.69231 0
-6.92308 7.69231 0
-6.15385 7.69231 0
-5.38462 7.69231 0
-4.61538 7.69231 0
-3.84615 7.69231 0
-3.07692 7.69231 0
-2.30769 7.69231 0
-1.53846 7.69231 0
-0.769231 7.69231 0
5.55112e-016 7.69231 0
0.769231 7.69231 0
1.53846 7.69231 0
2.30769 7.69231 0
3.07692 7.69231 0
3.84615 7.69231 0
4.61538 7.69231 0
5.38462 7.69231 0
6.15385 7.69231 0
6.92308 7.69231 0
7.69231 7.69231 0
8.46154 7.69231 0
10 7.69231 0
-10 8.46154 0
-9.23077 8.46154 0
-8.46154 8.46154 0
-7.69231 8.46154 0
-6.92308 8.46154 0
-6.15385 8.46154 0
-5.38462 8.46154 0
-4.61538 8.46154 0
-3.84615 8.46154 0
-3.07692 8.46154 0
-2.30769 8.46154 0
-1.53846 8.46154 0
-0.769231 8.46154 0
5.55112e-016 8.46154 0
0.769231 8.46154 0
1.53846 8.46154 0
2.30769 8.46154 0
3.07692 8.46154 0
3.84615 8.46154 0
4.61538 8.46154 0
5.38462 8.46154 0
6.15385 8.46154 0
6.92308 8.46154 0
7.69231 8.46154 0
8.46154 8.46154 0
10 8.46154 0
-10 10 0
-9.23077 10 0
-8.46154 10 0
-7.69231 10 0
-6.92308 10 0
-6.15385 10 0
-5.38462 10 0
-4.61538 10 0
-3.84615 10 0
-3.07692 10 0
-2.30769 10 0
-1.53846 10 0
-0.769231 10 0
5.55112e-016 10 0
0.769231 10 0
1.53846 10 0
2.30769 10 0
3.07692 10 0
3.84615 10 0
4.61538 10 0
5.38462 10 0
6.15385 10 0
6.92308 10 0
7.69231 10 0
8.46154 10 0
10 10 0

POINT_DATA 676
SCALARS h double 1
LOOkUP_TABLE default
0.0748545
0.0763147
0.0759304
0.0739089
0.0705852
0.0663489
0.0615898
0.0566594
0.0518437
0.0473514
0.0433169
0.0398163
0.0368928
0.0345858
0.0329597
0.0321295
0.0322724
0.0336135
0.0363699
0.0406486
0.046326
0.0529756
0.0599017
0.0662973
0.0714337
0.0748545
0.0663943
0.0702604
0.0726934
0.073544
0.0728099
0.0706571
0.0673727
0.0633154
0.0588557
0.0543228
0.049972
0.045977
0.0424422
0.0394283
0.0369822
0.0351654
0.0340758
0.0338555
0.0346764
0.0366975
0.0399931
0.0444812
0.04987
0.0557082
0.0613918
0.0663943
0.0586972
0.0640626
0.0687467
0.0723108
0.0743766
0.074761
0.0734955
0.0708135
0.0670876
0.0627406
0.0581646
0.0536695
0.0494683
0.0456898
0.0424072
0.039671
0.0375377
0.0360903
0.0354447
0.0357387
0.0371037
0.0396158
0.0432573
0.047866
0.0531535
0.0586972
0.0522235
0.0581862
0.0643852
0.070241
0.0750876
0.0783476
0.0796617
0.0789722
0.0765141
0.0727242
0.0681137
0.0631573
0.0582266
0.053573
0.0493453
0.0456247
0.0424618
0.0399075
0.0380329
0.0369376
0.0367425
0.0375759
0.0395382
0.042685
0.046963
0.0522235
0.0471516
0.052928
0.0598229
0.0673305
0.0746707
0.0809452
0.0853424
0.087352
0.0868813
0.08423
0.0799534
0.0746885
0.0690111
0.0633595
0.0580209
0.0531589
0.0488572
0.0451629
0.0421196
0.0397887
0.0382603
0.0376514
0.0381029
0.0397598
0.0427504
0.0471516
0.0434581
0.0484345
0.0552216
0.0635697
0.0728178
0.0819401
0.0897374
0.0951517
0.0975569
0.0968907
0.0935895
0.0883855
0.0820765
0.0753547
0.0687259
0.0625072
0.0568683
0.0518881
0.0476033
0.0440467
0.0412695
0.0393569
0.0384327
0.0386672
0.0402647
0.0434581
0.0410533
0.044793
0.0507609
0.0590523
0.0693349
0.0807317
0.091875
0.10121
0.107432
0.109851
0.108518
0.104085
0.0975175
0.0898056
0.0817645
0.0739611
0.0667294
0.0602325
0.0545321
0.0496465
0.0455921
0.0424103
0.0401859
0.0390626
0.0392535
0.0410533
0.0398516
0.042089
0.0466878
0.05406
0.0643103
0.0769777
0.0908659
0.104175
0.11495
0.121663
0.123636
0.121127
0.115085
0.106764
0.0973614
0.0878102
0.07872
0.0704217
0.0630533
0.0566465
0.0511927
0.0466891
0.0431678
0.0407214
0.0395218
0.0398516
0.0397912
0.0404105
0.0432982
0.049063
0.0582088
0.0708358
0.0862678
0.102886
0.118375
0.130359
0.137137
0.138144
0.13395
0.125881
0.11551
0.104241
0.0931006
0.0827113
0.0733744
0.0651847
0.0581325
0.0521774
0.0472959
0.0435155
0.0409403
0.0397912
0.0408223
0.0398198
0.0408651
0.0446106
0.0517999
0.0630473
0.0783949
0.0968606
0.1163
0.13382
0.146638
0.152965
0.152471
0.146143
0.135743
0.123168
0.11
0.0973161
0.085714
0.0754395
0.0665297
0.0589277
0.0525597
0.047385
0.0434282
0.0408223
0.0428926
0.0403275
0.039565
0.0411736
0.0459349
0.0547661
0.0683695
0.086668
0.108277
0.130438
0.149653
0.16279
0.168102
0.165621
0.156843
0.143982
0.129229
0.114283
0.100221
0.0875762
0.0765206
0.0670268
0.0589914
0.052312
0.0469333
0.0428926
0.0459436
0.0418901
0.0394464
0.0390268
0.0412899
0.047191
0.0578145
0.0739195
0.0952359
0.119884
0.144435
0.164811
0.177652
0.181402
0.176581
0.165237
0.150004
0.13329
0.116836
0.101658
0.0882015
0.076557
0.066637
0.0582997
0.0514201
0.0459436
0.0499121
0.0444254
0.0404491
0.038226
0.0382117
0.0411984
0.0483099
0.060783
0.0793835
0.103566
0.130884
0.157237
0.17807
0.189964
0.191718
0.184422
0.170651
0.153367
0.135083
0.1175
0.101535
0.0875365
0.0755191
0.0653496
0.0568577
0.0499121
0.0547309
0.0478339
0.0424491
0.0386644
0.0367234
0.0371669
0.0409099
0.049233
0.0634895
0.0843826
0.111014
0.140343
0.167675
0.188159
0.198523
0.198057
0.188425
0.172627
0.153808
0.134471
0.116211
0.0998274
0.0855794
0.0734271
0.0632039
0.0547309
0.0603189
0.0520111
0.0453023
0.0401573
0.0366385
0.0350389
0.0359697
0.0404563
0.049906
0.0657288
0.0884845
0.116868
0.147287
0.174621
0.193966
0.202395
0.199754
0.188196
0.170978
0.15127
0.131462
0.113007
0.0965928
0.0824082
0.0703755
0.0603189
0.0665562
0.0568443
0.0488685
0.0425095
0.0376931
0.0345131
0.033297
0.0347159
0.0398805
0.0502744
0.067285
0.0912513
0.120455
0.150878
0.177216
0.194771
0.201108
0.196598
0.183724
0.16581
0.145906
0.126222
0.108058
0.092005
0.0782007
0.0665562
0.0732442
0.0621911
0.0530115
0.0455474
0.0396361
0.035231
0.0324442
0.0316314
0.0335065
0.0392279
0.050288
0.0679653
0.0923243
0.121289
0.15061
0.175079
0.19042
0.194755
0.188871
0.175388
0.157518
0.138087
0.119091
0.101678
0.0863577
0.0732442
0.0800567
0.0678466
0.0575809
0.0491207
0.0422651
0.0368844
0.032948
0.0305842
0.0301684
0.0324347
0.038542
0.0499161
0.0676494
0.0915185
0.119202
0.146452
0.168408
0.181366
0.183979
0.177299
0.163901
0.146752
0.128388
0.110573
0.0943118
0.0800567
0.0864998
0.0735064
0.0623836
0.0530834
0.0454247
0.0392485
0.0344463
0.0310048
0.0290659
0.0290146
0.0315782
0.0378654
0.0491651
0.0663315
0.0888828
0.1144
0.138859
0.157938
0.168564
0.16984
0.162931
0.150224
0.134353
0.117533
0.101286
0.0864998
0.0919106
0.0787449
0.0671577
0.0572696
0.0489848
0.0421715
0.0367002
0.0324855
0.0295318
0.0279923
0.0282488
0.030995
0.0372421
0.0480888
0.0641328
0.0846976
0.107418
0.128671
0.144776
0.153283
0.15364
0.146993
0.135449
0.121264
0.106315
0.0919106
0.0955274
0.083031
0.0715628
0.0614737
0.0528181
0.0455492
0.0395704
0.0347827
0.031126
0.0286221
0.0274308
0.0279189
0.0307212
0.0367159
0.0467833
0.0612782
0.0794113
0.0989993
0.11693
0.130193
0.136898
0.13673
0.130729
0.120669
0.108414
0.0955274
0.0966505
0.0858012
0.0752027
0.0654474
0.0567836
0.0493008
0.0429863
0.0377788
0.0336111
0.0304483
0.0283286
0.0274127
0.0280408
0.0307701
0.036326
0.0453682
0.0580482
0.0735461
0.0899498
0.104699
0.115421
0.120695
0.120353
0.11527
0.106868
0.0966505
0.0948637
0.0865915
0.0776889
0.0689215
0.0607261
0.0533553
0.0469205
0.0414436
0.0368991
0.0332516
0.0304901
0.0286655
0.0279342
0.0286001
0.0311323
0.0361003
0.0439647
0.054727
0.0676075
0.0810118
0.0929167
0.101513
0.10575
0.105534
0.101538
0.0948637
0.0902361
0.0851973
0.0787424
0.071659
0.0644983
0.0576559
0.0513827
0.0458165
0.0410152
0.0369891
0.0337325
0.0312554
0.0296176
0.0289653
0.0295605
0.0317822
0.0360569
0.0426823
0.0515687
0.0620282
0.0727926
0.0823228
0.0892747
0.0928739
0.0930333
0.0902361
0.0832103
0.0815907
0.0781074
0.0733429
0.0678262
0.0620174
0.0562782
0.0508699
0.0459621
0.0416504
0.0379794
0.0349699
0.0326488
0.0310805
0.0303965
0.0308154
0.0326327
0.0361554
0.0415634
0.0487286
0.0570869
0.0656758
0.0733645
0.079164
0.0824922
0.0832103
0.0748545
0.0763147
0.0759304
0.0739089
0.0705852
0.0663489
0.0615898
0.0566594
0.0518437
0.0473514
0.0433169
0.0398163
0.0368928
0.0345858
0.0329597
0.0321295
0.0322724
0.0336135
0.0363699
0.0406486
0.046326
0.0529756
0.0599017
0.0662973
0.0714337
0.0748545

VECTORS u double
-187.976 170.743 0.0
-188.24 171.084 0.0
-188.232 171.443 0.0
-188.042 171.821 0.0
-187.71 172.201 0.0
-187.264 172.562 0.0
-186.732 172.884 0.0
-186.139 173.147 0.0
-185.512 173.335 0.0
-184.877 173.436 0.0
-184.263 173.438 0.0
-183.695 173.333 0.0
-183.195 173.115 0.0
-182.785 172.778 0.0
-182.486 172.324 0.0
-182.325 171.768 0.0
-182.34 171.152 0.0
-182.577 170.549 0.0
-183.063 170.049 0.0
-183.782 169.725 0.0
-184.659 169.597 0.0
-185.59 169.631 0.0
-186.468 169.785 0.0
-187.204 169.999 0.0
-187.748 170.342 0.0
-187.976 170.743 0.0
-186.985 170.993 0.0
-187.279 171.526 0.0
-187.368 171.971 0.0
-187.315 172.484 0.0
-187.144 173.018 0.0
-186.874 173.533 0.0
-186.523 173.999 0.0
-186.111 174.387 0.0
-185.657 174.677 0.0
-185.183 174.856 0.0
-184.714 174.915 0.0
-184.272 174.848 0.0
-183.877 174.653 0.0
-183.544 174.329 0.0
-183.285 173.877 0.0
-183.11 173.304 0.0
-183.03 172.628 0.0
-183.07 171.892 0.0
-183.257 171.164 0.0
-183.616 170.533 0.0
-184.141 170.073 0.0
-184.796 169.83 0.0
-185.496 169.8 0.0
-186.228 169.978 0.0
-186.793 170.335 0.0
-186.985 170.993 0.0
-186.404 171.066 0.0
-186.607 171.775 0.0
-186.697 172.348 0.0
-186.724 173.006 0.0
-186.679 173.698 0.0
-186.562 174.372 0.0
-186.381 174.985 0.0
-186.143 175.503 0.0
-185.86 175.901 0.0
-185.547 176.164 0.0
-185.223 176.284 0.0
-184.909 176.259 0.0
-184.621 176.09 0.0
-184.375 175.78 0.0
-184.176 175.336 0.0
-184.03 174.763 0.0
-183.935 174.074 0.0
-183.895 173.293 0.0
-183.923 172.464 0.0
-184.04 171.654 0.0
-184.27 170.95 0.0
-184.621 170.433 0.0
-185.094 170.169 0.0
-185.636 170.171 0.0
-186.236 170.473 0.0
-186.404 171.066 0.0
-186.01 171.113 0.0
-186.144 171.786 0.0
-186.214 172.488 0.0
-186.282 173.293 0.0
-186.33 174.148 0.0
-186.344 174.989 0.0
-186.316 175.761 0.0
-186.242 176.422 0.0
-186.123 176.941 0.0
-185.968 177.302 0.0
-185.788 177.498 0.0
-185.601 177.527 0.0
-185.422 177.394 0.0
-185.264 177.107 0.0
-185.135 176.675 0.0
-185.035 176.109 0.0
-184.962 175.423 0.0
-184.91 174.634 0.0
-184.878 173.772 0.0
-184.873 172.883 0.0
-184.913 172.033 0.0
-185.027 171.308 0.0
-185.228 170.795 0.0
-185.546 170.565 0.0
-185.897 170.652 0.0
-186.01 171.113 0.0
-185.823 171.124 0.0
-185.857 171.681 0.0
-185.883 172.419 0.0
-185.961 173.328 0.0
-186.072 174.329 0.0
-186.193 175.335 0.0
-186.301 176.275 0.0
-186.379 177.093 0.0
-186.418 177.752 0.0
-186.417 178.232 0.0
-186.382 178.523 0.0
-186.324 178.625 0.0
-186.257 178.546 0.0
-186.192 178.295 0.0
-186.137 177.887 0.0
-186.095 177.337 0.0
-186.062 176.661 0.0
-186.03 175.878 0.0
-185.991 175.01 0.0
-185.941 174.089 0.0
-185.885 173.162 0.0
-185.834 172.294 0.0
-185.818 171.572 0.0
-185.854 171.077 0.0
-185.94 170.9 0.0
-185.823 171.124 0.0
-185.939 171.132 0.0
-185.8 171.487 0.0
-185.713 172.157 0.0
-185.745 173.099 0.0
-185.879 174.207 0.0
-186.077 175.366 0.0
-186.302 176.477 0.0
-186.52 177.465 0.0
-186.711 178.285 0.0
-186.862 178.907 0.0
-186.973 179.319 0.0
-187.049 179.521 0.0
-187.1 179.52 0.0
-187.135 179.327 0.0
-187.163 178.96 0.0
-187.187 178.438 0.0
-187.205 177.781 0.0
-187.209 177.009 0.0
-187.188 176.143 0.0
-187.131 175.208 0.0
-187.03 174.235 0.0
-186.884 173.272 0.0
-186.7 172.382 0.0
-186.507 171.651 0.0
-186.308 171.187 0.0
-185.939 171.132 0.0
-186.339 171.152 0.0
-185.983 171.24 0.0
-185.713 171.739 0.0
-185.63 172.622 0.0
-185.728 173.777 0.0
-185.963 175.058 0.0
-186.278 176.333 0.0
-186.623 177.503 0.0
-186.958 178.501 0.0
-187.262 179.291 0.0
-187.524 179.854 0.0
-187.741 180.185 0.0
-187.92 180.291 0.0
-188.067 180.183 0.0
-188.189 179.88 0.0
-188.289 179.403 0.0
-188.367 178.775 0.0
-188.414 178.018 0.0
-188.42 177.155 0.0
-188.37 176.208 0.0
-188.249 175.202 0.0
-188.045 174.167 0.0
-187.754 173.154 0.0
-187.387 172.229 0.0
-186.958 171.505 0.0
-186.339 171.152 0.0
-186.981 171.204 0.0
-186.401 170.986 0.0
-185.899 171.223 0.0
-185.626 171.943 0.0
-185.614 173.06 0.0
-185.827 174.412 0.0
-186.197 175.832 0.0
-186.648 177.183 0.0
-187.121 178.377 0.0
-187.577 179.358 0.0
-187.994 180.099 0.0
-188.363 180.59 0.0
-188.682 180.834 0.0
-188.954 180.84 0.0
-189.183 180.626 0.0
-189.371 180.214 0.0
-189.517 179.628 0.0
-189.613 178.894 0.0
-189.649 178.036 0.0
-189.61 177.076 0.0
-189.478 176.039 0.0
-189.238 174.948 0.0
-188.878 173.842 0.0
-188.4 172.772 0.0
-187.807 171.835 0.0
-186.981 171.204 0.0
-187.798 171.295 0.0
-187.028 170.777 0.0
-186.282 170.69 0.0
-185.759 171.141 0.0
-185.554 172.113 0.0
-185.67 173.459 0.0
-186.039 174.982 0.0
-186.564 176.503 0.0
-187.161 177.897 0.0
-187.767 179.088 0.0
-188.345 180.032 0.0
-188.875 180.712 0.0
-189.347 181.123 0.0
-189.759 181.273 0.0
-190.109 181.175 0.0
-190.398 180.85 0.0
-190.621 180.323 0.0
-190.772 179.622 0.0
-190.84 178.773 0.0
-190.813 177.803 0.0
-190.675 176.737 0.0
-190.411 175.601 0.0
-190.008 174.426 0.0
-189.464 173.252 0.0
-188.771 172.157 0.0
-187.798 171.295 0.0
-188.715 171.416 0.0
-187.815 170.641 0.0
-186.858 170.221 0.0
-186.063 170.323 0.0
-185.59 171.028 0.0
-185.515 172.259 0.0
-185.806 173.814 0.0
-186.356 175.474 0.0
-187.051 177.062 0.0
-187.799 178.471 0.0
-188.539 179.636 0.0
-189.237 180.528 0.0
-189.874 181.134 0.0
-190.438 181.454 0.0
-190.924 181.499 0.0
-191.326 181.285 0.0
-191.637 180.837 0.0
-191.85 180.183 0.0
-191.956 179.354 0.0
-191.944 178.381 0.0
-191.804 177.294 0.0
-191.525 176.123 0.0
-191.098 174.898 0.0
-190.519 173.653 0.0
-189.772 172.449 0.0
-188.715 171.416 0.0
-189.656 171.548 0.0
-188.689 170.584 0.0
-187.587 169.871 0.0
-186.552 169.599 0.0
-185.774 169.933 0.0
-185.417 170.911 0.0
-185.528 172.391 0.0
-186.027 174.125 0.0
-186.775 175.883 0.0
-187.643 177.506 0.0
-188.54 178.901 0.0
-189.409 180.021 0.0
-190.218 180.842 0.0
-190.946 181.357 0.0
-191.58 181.569 0.0
-192.108 181.492 0.0
-192.52 181.146 0.0
-192.806 180.559 0.0
-192.96 179.767 0.0
-192.972 178.805 0.0
-192.838 177.709 0.0
-192.554 176.516 0.0
-192.115 175.258 0.0
-191.519 173.967 0.0
-190.751 172.695 0.0
-189.656 171.548 0.0
-190.558 171.671 0.0
-189.572 170.586 0.0
-188.399 169.657 0.0
-187.198 169.05 0.0
-186.142 168.965 0.0
-185.446 169.56 0.0
-185.267 170.813 0.0
-185.606 172.515 0.0
-186.332 174.386 0.0
-187.28 176.202 0.0
-188.317 177.825 0.0
-189.353 179.18 0.0
-190.337 180.229 0.0
-191.236 180.957 0.0
-192.027 181.358 0.0
-192.693 181.441 0.0
-193.22 181.222 0.0
-193.595 180.729 0.0
-193.811 179.997 0.0
-193.862 179.067 0.0
-193.748 177.982 0.0
-193.471 176.784 0.0
-193.032 175.511 0.0
-192.433 174.196 0.0
-191.661 172.884 0.0
-190.558 171.671 0.0
-191.377 171.773 0.0
-190.401 170.623 0.0
-189.211 169.561 0.0
-187.93 168.706 0.0
-186.678 168.238 0.0
-185.658 168.373 0.0
-185.108 169.238 0.0
-185.159 170.746 0.0
-185.753 172.627 0.0
-186.71 174.586 0.0
-187.849 176.416 0.0
-189.037 178.003 0.0
-190.192 179.286 0.0
-191.264 180.237 0.0
-192.22 180.845 0.0
-193.035 181.11 0.0
-193.691 181.044 0.0
-194.173 180.672 0.0
-194.47 180.029 0.0
-194.579 179.16 0.0
-194.504 178.111 0.0
-194.25 176.93 0.0
-193.825 175.663 0.0
-193.236 174.343 0.0
-192.471 173.017 0.0
-191.377 171.773 0.0
-192.083 171.851 0.0
-191.13 170.679 0.0
-189.957 169.552 0.0
-188.66 168.548 0.0
-187.312 167.797 0.0
-186.055 167.497 0.0
-185.13 167.865 0.0
-184.784 168.99 0.0
-185.102 170.712 0.0
-185.958 172.714 0.0
-187.134 174.705 0.0
-188.441 176.504 0.0
-189.754 178.015 0.0
-190.996 179.194 0.0
-192.12 180.019 0.0
-193.094 180.484 0.0
-193.893 180.596 0.0
-194.499 180.374 0.0
-194.899 179.852 0.0
-195.09 179.075 0.0
-195.076 178.092 0.0
-194.867 176.957 0.0
-194.473 175.718 0.0
-193.906 174.415 0.0
-193.158 173.097 0.0
-192.083 171.851 0.0
-192.657 171.906 0.0
-191.735 170.746 0.0
-190.592 169.605 0.0
-189.316 168.536 0.0
-187.948 167.62 0.0
-186.569 166.998 0.0
-185.358 166.881 0.0
-184.586 167.478 0.0
-184.49 168.825 0.0
-185.091 170.696 0.0
-186.197 172.751 0.0
-187.564 174.718 0.0
-189.007 176.439 0.0
-190.409 177.84 0.0
-191.701 178.885 0.0
-192.84 179.562 0.0
-193.793 179.87 0.0
-194.54 179.825 0.0
-195.065 179.455 0.0
-195.362 178.804 0.0
-195.434 177.921 0.0
-195.293 176.862 0.0
-194.951 175.68 0.0
-194.422 174.418 0.0
-193.705 173.13 0.0
-192.657 171.906 0.0
-193.086 171.943 0.0
-192.202 170.82 0.0
-191.095 169.703 0.0
-189.855 168.631 0.0
-188.509 167.651 0.0
-187.1 166.849 0.0
-185.732 166.373 0.0
-184.617 166.438 0.0
-184.05 167.231 0.0
-184.231 168.735 0.0
-185.108 170.677 0.0
-186.434 172.714 0.0
-187.955 174.6 0.0
-189.494 176.203 0.0
-190.948 177.463 0.0
-192.253 178.356 0.0
-193.37 178.873 0.0
-194.272 179.025 0.0
-194.941 178.835 0.0
-195.367 178.341 0.0
-195.552 177.591 0.0
-195.504 176.641 0.0
-195.237 175.546 0.0
-194.767 174.353 0.0
-194.095 173.12 0.0
-193.086 171.943 0.0
-193.357 171.961 0.0
-192.52 170.903 0.0
-191.457 169.84 0.0
-190.26 168.807 0.0
-188.954 167.835 0.0
-187.565 166.972 0.0
-186.15 166.302 0.0