# vtk DataFile Version 2.0
Particulate Flow Equations Solution
ASCII
DATASET STRUCTURED_GRID
DIMENSIONS 26 26 1
POINTS 676 double
-10 -10 0
-9.23077 -10 0
-8.46154 -10 0
-7.69231 -10 0
-6.92308 -10 0
-6.15385 -10 0
-5.38462 -10 0
-4.61538 -10 0
-3.84615 -10 0
-3.07692 -10 0
-2.30769 -10 0
-1.53846 -10 0
-0.769231 -10 0
5.55112e-016 -10 0
0.769231 -10 0
1.53846 -10 0
2.30769 -10 0
3.07692 -10 0
3.84615 -10 0
4.61538 -10 0
5.38462 -10 0
6.15385 -10 0
6.92308 -10 0
7.69231 -10 0
8.46154 -10 0
10 -10 0
-10 -9.23077 0
-9.23077 -9.23077 0
-8.46154 -9.23077 0
-7.69231 -9.23077 0
-6.92308 -9.23077 0
-6.15385 -9.23077 0
-5.38462 -9.23077 0
-4.61538 -9.23077 0
-3.84615 -9.23077 0
-3.07692 -9.23077 0
-2.30769 -9.23077 0
-1.53846 -9.23077 0
-0.769231 -9.23077 0
5.55112e-016 -9.23077 0
0.769231 -9.23077 0
1.53846 -9.23077 0
2.30769 -9.23077 0
3.07692 -9.23077 0
3.84615 -9.23077 0
4.61538 -9.23077 0
5.38462 -9.23077 0
6.15385 -9.23077 0
6.92308 -9.23077 0
7.69231 -9.23077 0
8.46154 -9.23077 0
10 -9.23077 0
-10 -8.46154 0
-9.23077 -8.46154 0
-8.46154 -8.46154 0
-7.69231 -8.46154 0
-6.92308 -8.46154 0
-6.15385 -8.46154 0
-5.38462 -8.46154 0
-4.61538 -8.46154 0
-3.84615 -8.46154 0
-3.07692 -8.46154 0
-2.30769 -8.46154 0
-1.53846 -8.46154 0
-0.769231 -8.46154 0
5.55112e-016 -8.46154 0
0.769231 -8.46154 0
1.53846 -8.46154 0
2.30769 -8.46154 0
3.07692 -8.46154 0
3.84615 -8.46154 0
4.61538 -8.46154 0
5.38462 -8.46154 0
6.15385 -8.46154 0
6.92308 -8.46154 0
7.69231 -8.46154 0
8.46154 -8.46154 0
10 -8.46154 0
-10 -7.69231 0
-9.23077 -7.69231 0
-8.46154 -7.69231 0
-7.69231 -7.69231 0
-6.92308 -7.69231 0
-6.15385 -7.69231 0
-5.38462 -7.69231 0
-4.61538 -7.69231 0
-3.84615 -7.69231 0
-3.07692 -7.69231 0
-2.30769 -7.69231 0
-1.53846 -7.69231 0
-0.769231 -7.69231 0
5.55112e-016 -7.69231 0
0.769231 -7.69231 0
1.53846 -7.69231 0
2.30769 -7.69231 0
3.07692 -7.69231 0
3.84615 -7.69231 0
4.61538 -7.69231 0
5.38462 -7.69231 0
6.15385 -7.69231 0
6.92308 -7.69231 0
7.69231 -7.69231 0
8.46154 -7.69231 0
10 -7.69231 0
-10 -6.92308 0
-9.23077 -6.92308 0
-8.46154 -6.92308 0
-7.69231 -6.92308 0
-6.92308 -6.92308 0
-6.15385 -6.92308 0
-5.38462 -6.92308 0
-4.61538 -6.92308 0
-3.84615 -6.92308 0
-3.07692 -6.92308 0
-2.30769 -6.92308 0
-1.53846 -6.92308 0
-0.769231 -6.92308 0
5.55112e-016 -6.92308 0
0.769231 -6.92308 0
1.53846 -6.92308 0
2.30769 -6.92308 0
3.07692 -6.92308 0
3.84615 -6.92308 0
4.61538 -6.92308 0
5.38462 -6.92308 0
6.15385 -6.92308 0
6.92308 -6.92308 0
7.69231 -6.92308 0
8.46154 -6.92308 0
10 -6.92308 0
-10 -6.15385 0
-9.23077 -6.15385 0
-8.46154 -6.15385 0
-7.69231 -6.15385 0
-6.92308 -6.15385 0
-6.15385 -6.15385 0
-5.38462 -6.15385 0
-4.61538 -6.15385 0
-3.84615 -6.15385 0
-3.07692 -6.15385 0
-2.30769 -6.15385 0
-1.53846 -6.15385 0
-0.769231 -6.15385 0
5.55112e-016 -6.15385 0
0.769231 -6.15385 0
1.53846 -6.15385 0
2.30769 -6.15385 0
3.07692 -6.15385 0
3.84615 -6.15385 0
4.61538 -6.15385 0
5.38462 -6.15385 0
6.15385 -6.15385 0
6.92308 -6.15385 0
7.69231 -6.15385 0
8.46154 -6.15385 0
10 -6.15385 0
-10 -5.38462 0
-9.23077 -5.38462 0
-8.46154 -5.38462 0
-7.69231 -5.38462 0
-6.92308 -5.38462 0
-6.15385 -5.38462 0
-5.38462 -5.38462 0
-4.61538 -5.38462 0
-3.84615 -5.38462 0
-3.07692 -5.38462 0
-2.30769 -5.38462 0
-1.53846 -5.38462 0
-0.769231 -5.38462 0
5.55112e-016 -5.38462 0
0.769231 -5.38462 0
1.53846 -5.38462 0
2.30769 -5.38462 0
3.07692 -5.38462 0
3.84615 -5.38462 0
4.61538 -5.38462 0
5.38462 -5.38462 0
6.15385 -5.38462 0
6.92308 -5.38462 0
7.69231 -5.38462 0
8.46154 -5.38462 0
10 -5.38462 0
-10 -4.61538 0
-9.23077 -4.61538 0
-8.46154 -4.61538 0
-7.69231 -4.61538 0
-6.92308 -4.61538 0
-6.15385 -4.61538 0
-5.38462 -4.61538 0
-4.61538 -4.61538 0
-3.84615 -4.61538 0
-3.07692 -4.61538 0
-2.30769 -4.61538 0
-1.53846 -4.61538 0
-0.769231 -4.61538 0
5.55112e-016 -4.61538 0
0.769231 -4.61538 0
1.53846 -4.61538 0
2.30769 -4.61538 0
3.07692 -4.61538 0
3.84615 -4.61538 0
4.61538 -4.61538 0
5.38462 -4.61538 0
6.15385 -4.61538 0
6.92308 -4.61538 0
7.69231 -4.61538 0
8.46154 -4.61538 0
10 -4.61538 0
-10 -3.84615 0
-9.23077 -3.84615 0
-8.46154 -3.84615 0
-7.69231 -3.84615 0
-6.92308 -3.84615 0
-6.15385 -3.84615 0
-5.38462 -3.84615 0
-4.61538 -3.84615 0
-3.84615 -3.84615 0
-3.07692 -3.84615 0
-2.30769 -3.84615 0
-1.53846 -3.84615 0
-0.769231 -3.84615 0
5.55112e-016 -3.84615 0
0.769231 -3.84615 0
1.53846 -3.84615 0
2.30769 -3.84615 0
3.07692 -3.84615 0
3.84615 -3.84615 0
4.61538 -3.84615 0
5.38462 -3.84615 0
6.15385 -3.84615 0
6.92308 -3.84615 0
7.69231 -3.84615 0
8.46154 -3.84615 0
10 -3.84615 0
-10 -3.07692 0
-9.23077 -3.07692 0
-8.46154 -3.07692 0
-7.69231 -3.07692 0
-6.92308 -3.07692 0
-6.15385 -3.07692 0
-5.38462 -3.07692 0
-4.61538 -3.07692 0
-3.84615 -3.07692 0
-3.07692 -3.07692 0
-2.30769 -3.07692 0
-1.53846 -3.07692 0
-0.769231 -3.07692 0
5.55112e-016 -3.07692 0
0.769231 -3.07692 0
1.53846 -3.07692 0
2.30769 -3.07692 0
3.07692 -3.07692 0
3.84615 -3.07692 0
4.61538 -3.07692 0
5.38462 -3.07692 0
6.15385 -3.07692 0
6.92308 -3.07692 0
7.69231 -3.07692 0
8.46154 -3.07692 0
10 -3.07692 0
-10 -2.30769 0
-9.23077 -2.30769 0
-8.46154 -2.30769 0
-7.69231 -2.30769 0
-6.92308 -2.30769 0
-6.15385 -2.30769 0
-5.38462 -2.30769 0
-4.61538 -2.30769 0
-3.84615 -2.30769 0
-3.07692 -2.30769 0
-2.30769 -2.30769 0
-1.53846 -2.30769 0
-0.769231 -2.30769 0
5.55112e-016 -2.30769 0
0.769231 -2.30769 0
1.53846 -2.30769 0
2.30769 -2.30769 0
3.07692 -2.30769 0
3.84615 -2.30769 0
4.61538 -2.30769 0
5.38462 -2.30769 0
6.15385 -2.30769 0
6.92308 -2.30769 0
7.69231 -2.30769 0
8.46154 -2.30769 0
10 -2.30769 0
-10 -1.53846 0
-9.23077 -1.53846 0
-8.46154 -1.53846 0
-7.69231 -1.53846 0
-6.92308 -1.53846 0
-6.15385 -1.53846 0
-5.38462 -1.53846 0
-4.61538 -1.53846 0
-3.84615 -1.53846 0
-3.07692 -1.53846 0
-2.30769 -1.53846 0
-1.53846 -1.53846 0
-0.769231 -1.53846 0
5.55112e-016 -1.53846 0
0.769231 -1.53846 0
1.53846 -1.53846 0
2.30769 -1.53846 0
3.07692 -1.53846 0
3.84615 -1.53846 0
4.61538 -1.53846 0
5.38462 -1.53846 0
6.15385 -1.53846 0
6.92308 -1.53846 0
7.69231 -1.53846 0
8.46154 -1.53846 0
10 -1.53846 0
-10 -0.769231 0
-9.23077 -0.769231 0
-8.46154 -0.769231 0
-7.69231 -0.769231 0
-6.92308 -0.769231 0
-6.15385 -0.769231 0
-5.38462 -0.769231 0
-4.61538 -0.769231 0
-3.84615 -0.769231 0
-3.07692 -0.769231 0
-2.30769 -0.769231 0
-1.53846 -0.769231 0
-0.769231 -0.769231 0
5.55112e-016 -0.769231 0
0.769231 -0.769231 0
1.53846 -0.769231 0
2.30769 -0.769231 0
3.07692 -0.769231 0
3.84615 -0.769231 0
4.61538 -0.769231 0
5.38462 -0.769231 0
6.15385 -0.769231 0
6.92308 -0.769231 0
7.69231 -0.769231 0
8.46154 -0.769231 0
10 -0.769231 0
-10 5.55112e-016 0
-9.23077 5.55112e-016 0
-8.46154 5.55112e-016 0
-7.69231 5.55112e-016 0
-6.92308 5.55112e-016 0
-6.15385 5.55112e-016 0
-5.38462 5.55112e-016 0
-4.61538 5.55112e-016 0
-3.84615 5.55112e-016 0
-3.07692 5.55112e-016 0
-2.30769 5.55112e-016 0
-1.53846 5.55112e-016 0
-0.769231 5.55112e-016 0
5.55112e-016 5.55112e-016 0
0.769231 5.55112e-016 0
1.53846 5.55112e-016 0
2.30769 5.55112e-016 0
3.07692 5.55112e-016 0
3.84615 5.55112e-016 0
4.61538 5.55112e-016 0
5.38462 5.55112e-016 0
6.15385 5.55112e-016 0
6.92308 5.55112e-016 0
7.69231 5.55112e-016 0
8.46154 5.55112e-016 0
10 5.55112e-016 0
-10 0.769231 0
-9.23077 0.769231 0
-8.46154 0.769231 0
-7.69231 0.769231 0
-6.92308 0.769231 0
-6.15385 0.769231 0
-5.38462 0.769231 0
-4.61538 0.769231 0
-3.84615 0.769231 0
-3.07692 0.769231 0
-2.30769 0.769231 0
-1.53846 0.769231 0
-0.769231 0.769231 0
5.55112e-016 0.769231 0
0.769231 0.769231 0
1.53846 0.769231 0
2.30769 0.769231 0
3.07692 0.769231 0
3.84615 0.769231 0
4.61538 0.769231 0
5.38462 0.769231 0
6.15385 0.769231 0
6.92308 0.769231 0
7.69231 0.769231 0
8.46154 0.769231 0
10 0.769231 0
-10 1.53846 0
-9.23077 1.53846 0
-8.46154 1.53846 0
-7.69231 1.53846 0
-6.92308 1.53846 0
-6.15385 1.53846 0
-5.38462 1.53846 0
-4.61538 1.53846 0
-3.84615 1.53846 0
-3.07692 1.53846 0
-2.30769 1.53846 0
-1.53846 1.53846 0
-0.769231 1.53846 0
5.55112e-016 1.53846 0
0.769231 1.53846 0
1.53846 1.53846 0
2.30769 1.53846 0
3.07692 1.53846 0
3.84615 1.53846 0
4.61538 1.53846 0
5.38462 1.53846 0
6.15385 1.53846 0
6.92308 1.53846 0
7.69231 1.53846 0
8.46154 1.53846 0
10 1.53846 0
-10 2.30769 0
-9.23077 2.30769 0
-8.46154 2.30769 0
-7.69231 2.30769 0
-6.92308 2.30769 0
-6.15385 2.30769 0
-5.38462 2.30769 0
-4.61538 2.30769 0
-3.84615 2.30769 0
-3.07692 2.30769 0
-2.30769 2.30769 0
-1.53846 2.30769 0
-0.769231 2.30769 0
5.55112e-016 2.30769 0
0.769231 2.30769 0
1.53846 2.30769 0
2.30769 2.30769 0
3.07692 2.30769 0
3.84615 2.30769 0
4.61538 2.30769 0
5.38462 2.30769 0
6.15385 2.30769 0
6.92308 2.30769 0
7.69231 2.30769 0
8.46154 2.30769 0
10 2.30769 0
-10 3.07692 0
-9.23077 3.07692 0
-8.46154 3.07692 0
-7.69231 3.07692 0
-6.92308 3.07692 0
-6.15385 3.07692 0
-5.38462 3.07692 0
-4.61538 3.07692 0
-3.84615 3.07692 0
-3.07692 3.07692 0
-2.30769 3.07692 0
-1.53846 3.07692 0
-0.769231 3.07692 0
5.55112e-016 3.07692 0
0.769231 3.07692 0
1.53846 3.07692 0
2.30769 3.07692 0
3.07692 3.07692 0
3.84615 3.07692 0
4.61538 3.07692 0
5.38462 3.07692 0
6.15385 3.07692 0
6.92308 3.07692 0
7.69231 3.07692 0
8.46154 3.07692 0
10 3.07692 0
-10 3.84615 0
-9.23077 3.84615 0
-8.46154 3.84615 0
-7.69231 3.84615 0
-6.92308 3.84615 0
-6.15385 3.84615 0
-5.38462 3.84615 0
-4.61538 3.84615 0
-3.84615 3.84615 0
-3.07692 3.84615 0
-2.30769 3.84615 0
-1.53846 3.84615 0
-0.769231 3.84615 0
5.55112e-016 3.84615 0
0.769231 3.84615 0
1.53846 3.84615 0
2.30769 3.84615 0
3.07692 3.84615 0
3.84615 3.84615 0
4.61538 3.84615 0
5.38462 3.84615 0
6.15385 3.84615 0
6.92308 3.84615 0
7.69231 3.84615 0
8.46154 3.84615 0
10 3.84615 0
-10 4.61538 0
-9.23077 4.61538 0
-8.46154 4.61538 0
-7.69231 4.61538 0
-6.92308 4.61538 0
-6.15385 4.61538 0
-5.38462 4.61538 0
-4.61538 4.61538 0
-3.84615 4.61538 0
-3.07692 4.61538 0
-2.30769 4.61538 0
-1.53846 4.61538 0
-0.769231 4.61538 0
5.55112e-016 4.61538 0
0.769231 4.61538 0
1.53846 4.61538 0
2.30769 4.61538 0
3.07692 4.61538 0
3.84615 4.61538 0
4.61538 4.61538 0
5.38462 4.61538 0
6.15385 4.61538 0
6.92308 4.61538 0
7.69231 4.61538 0
8.46154 4.61538 0
10 4.61538 0
-10 5.38462 0
-9.23077 5.38462 0
-8.46154 5.38462 0
-7.69231 5.38462 0
-6.92308 5.38462 0
-6.15385 5.38462 0
-5.38462 5.38462 0
-4.61538 5.38462 0
-3.84615 5.38462 0
-3.07692 5.38462 0
-2.30769 5.38462 0
-1.53846 5.38462 0
-0.769231 5.38462 0
5.55112e-016 5.38462 0
0.769231 5.38462 0
1.53846 5.38462 0
2.30769 5.38462 0
3.07692 5.38462 0
3.84615 5.38462 0
4.61538 5.38462 0
5.38462 5.38462 0
6.15385 5.38462 0
6.92308 5.38462 0
7.69231 5.38462 0
8.46154 5.38462 0
10 5.38462 0
-10 6.15385 0
-9.23077 6.15385 0
-8.46154 6.15385 0
-7.69231 6.15385 0
-6.92308 6.15385 0
-6.15385 6.15385 0
-5.38462 6.15385 0
-4.61538 6.15385 0
-3.84615 6.15385 0
-3.07692 6.15385 0
-2.30769 6.15385 0
-1.53846 6.15385 0
-0.769231 6.15385 0
5.55112e-016 6.15385 0
0.769231 6.15385 0
1.53846 6.15385 0
2.30769 6.15385 0
3.07692 6.15385 0
3.84615 6.15385 0
4.61538 6.15385 0
5.38462 6.15385 0
6.15385 6.15385 0
6.92308 6.15385 0
7.69231 6.15385 0
8.46154 6.15385 0
10 6.15385 0
-10 6.92308 0
-9.23077 6.92308 0
-8.46154 6.92308 0
-7.69231 6.92308 0
-6.92308 6.92308 0
-6.15385 6.92308 0
-5.38462 6.92308 0
-4.61538 6.92308 0
-3.84615 6.92308 0
-3.07692 6.92308 0
-2.30769 6.92308 0
-1.53846 6.92308 0
-0.769231 6.92308 0
5.55112e-016 6.92308 0
0.769231 6.92308 0
1.53846 6.92308 0
2.30769 6.92308 0
3.07692 6.92308 0
3.84615 6.92308 0
4.61538 6.92308 0
5.38462 6.92308 0
6.15385 6.92308 0
6.92308 6.92308 0
7.69231 6.92308 0
8.46154 6.92308 0
10 6.92308 0
-10 7.69231 0
-9.23077 7.69231 0
-8.46154 7.69231 0
-7.69231 7.69231 0
-6.92308 7.69231 0
-6.15385 7.69231 0
-5.38462 7.69231 0
-4.61538 7.69231 0
-3.84615 7.69231 0
-3.07692 7.69231 0
-2.30769 7.69231 0
-1.53846 7.69231 0
-0.769231 7.69231 0
5.55112e-016 7.69231 0
0.769231 7.69231 0
1.53846 7.69231 0
2.30769 7.69231 0
3.07692 7.69231 0
3.84615 7.69231 0
4.61538 7.69231 0
5.38462 7.69231 0
6.15385 7.69231 0
6.92308 7.69231 0
7.69231 7.69231 0
8.46154 7.69231 0
10 7.69231 0
-10 8.46154 0
-9.23077 8.46154 0
-8.46154 8.46154 0
-7.69231 8.46154 0
-6.92308 8.46154 0
-6.15385 8.46154 0
-5.38462 8.46154 0
-4.61538 8.46154 0
-3.84615 8.46154 0
-3.07692 8.46154 0
-2.30769 8.46154 0
-1.53846 8.46154 0
-0.769231 8.46154 0
5.55112e-016 8.46154 0
0.769231 8.46154 0
1.53846 8.46154 0
2.30769 8.46154 0
3.07692 8.46154 0
3.84615 8.46154 0
4.61538 8.46154 0
5.38462 8.46154 0
6.15385 8.46154 0
6.92308 8.46154 0
7.69231 8.46154 0
8.46154 8.46154 0
10 8.46154 0
-10 10 0
-9.23077 10 0
-8.46154 10 0
-7.69231 10 0
-6.92308 10 0
-6.15385 10 0
-5.38462 10 0
-4.61538 10 0
-3.84615 10 0
-3.07692 10 0
-2.30769 10 0
-1.53846 10 0
-0.769231 10 0
5.55112e-016 10 0
0.769231 10 0
1.53846 10 0
2.30769 10 0
3.07692 10 0
3.84615 10 0
4.61538 10 0
5.38462 10 0
6.15385 10 0
6.92308 10 0
7.69231 10 0
8.46154 10 0
10 10 0

POINT_DATA 676
SCALARS h double 1
LOOkUP_TABLE default
0.0189818
0.0244402
0.034076
0.0486523
0.0681987
0.091546
0.116235
0.13896
0.156414
0.166173
0.167247
0.160143
0.146533
0.128726
0.109125
0.089799
0.072217
0.0571808
0.0449196
0.03528
0.0279309
0.022532
0.0188511
0.0168442
0.0167179
0.0189818
0.0180177
0.0229319
0.0326981
0.0488122
0.0721969
0.102366
0.13685
0.17133
0.200589
0.219965
0.226648
0.220327
0.202995
0.178163
0.149823
0.121536
0.0958472
0.0741167
0.0566915
0.0432556
0.0331916
0.0258573
0.0207563
0.0176384
0.0165693
0.0180177
0.0166999
0.0203689
0.0290681
0.0449528
0.0700663
0.105223
0.148833
0.196346
0.240847
0.274828
0.292442
0.291233
0.272636
0.241174
0.202842
0.163397
0.127149
0.0964929
0.0721235
0.0535977
0.039942
0.0301052
0.0232199
0.0187287
0.0164564
0.0166999
0.0154022
0.0173722
0.0240165
0.0378275
0.0618347
0.0984743
0.147954
0.206801
0.267523
0.320039
0.35459
0.364927
0.350253
0.315099
0.267366
0.215605
0.166739
0.124937
0.0916923
0.0666073
0.0483446
0.0353552
0.0262953
0.0202042
0.0165705
0.0154022
0.0144417
0.0146056
0.0187127
0.0291345
0.0493797
0.0832744
0.133261
0.198244
0.272001
0.343417
0.399162
0.428016
0.424838
0.392148
0.338654
0.275705
0.213569
0.159107
0.11533
0.0822838
0.0583925
0.0415857
0.0299653
0.0220874
0.0170339
0.0144417
0.0139678
0.0125159
0.0141747
0.0207933
0.0356857
0.0633239
0.108019
0.171624
0.250947
0.33631
0.412816
0.464663
0.480843
0.459289
0.407199
0.337563
0.264077
0.197098
0.142064
0.100124
0.0698081
0.0486286
0.0341231
0.0243205
0.017857
0.0139678
0.0139572
0.0112316
0.0109273
0.0141776
0.0235562
0.0432667
0.0784706
0.133444
0.208735
0.298368
0.388998
0.462668
0.502865
0.501038
0.459889
0.391532
0.311947
0.235139
0.169785
0.118993
0.0819831
0.0561508
0.0385761
0.0267815
0.0189593
0.0139572
0.0142842
0.0106339
0.00897359
0.00975808
0.0145976
0.0267411
0.0510443
0.0928958
0.155891
0.238615
0.332015
0.419657
0.482224
0.504899
0.483627
0.426397
0.348936
0.267858
0.195306
0.137121
0.0939772
0.0636614
0.0430621
0.0293125
0.0202171
0.0142842
0.0148011
0.0105024
0.00800526
0.00725925
0.00901035
0.0153049
0.0298867
0.0578772
0.104331
0.171544
0.255756
0.34518
0.421723
0.46705
0.470309
0.432849
0.366872
0.289254
0.214765
0.152262
0.104576
0.0705348
0.0472632
0.0317399
0.0215032
0.0148011
0.0153837
0.0106331
0.00765267
0.00608045
0.00606628
0.00861168
0.016082
0.0324332
0.0626029
0.110776
0.177526
0.25683
0.335184
0.394841
0.420708
0.407163
0.360298
0.294231
0.224373
0.161997
0.112397
0.0760411
0.0508123
0.0338764
0.0227002
0.0153837
0.0159377
0.0108831
0.00763251
0.00565988
0.00478366
0.00531986
0.00845434
0.0166955
0.03389
0.0643765
0.11108
0.172758
0.241717
0.304225
0.344869
0.353233
0.328732
0.280292
0.221399
0.1642
0.116067
0.0793952
0.0532959
0.0355127
0.0236935
0.0159377
0.0163853
0.0111646
0.00777736
0.00562953
0.00438692
0.00401237
0.00494045
0.00844661
0.0169823
0.0339949
0.0629199
0.105264
0.158241
0.213458
0.258503
0.281676
0.277419
0.24876
0.205161
0.157629
0.1145
0.0798609
0.0542812
0.0364157
0.0243603
0.0163853
0.016656
0.0114247
0.00800651
0.0058047
0.00443224
0.00370425
0.00368681
0.00488401
0.00855594
0.016916
0.0328003
0.0585934
0.0944789
0.136696
0.177243
0.206186
0.215936
0.204853
0.177648
0.142512
0.107272
0.0769406
0.0533962
0.0363555
0.0245728
0.016656
0.0166911
0.0116327
0.00829233
0.00612009
0.00473177
0.00389697
0.00353554
0.00378399
0.00516655
0.00883303
0.0166255
0.0306565
0.0522768
0.0806584
0.111775
0.138904
0.155074
0.156279
0.143287
0.120824
0.0949616
0.0706182
0.0504647
0.0351698
0.0242241
0.0166911
0.0164646
0.011784
0.00864388
0.00658081
0.00524812
0.00441838
0.00396714
0.00388734
0.00435648
0.00587394
0.00940811
0.0163566
0.0280977
0.0451096
0.0659892
0.0870875
0.103437
0.11082
0.107743
0.0959484
0.0792267
0.0615333
0.04565
0.0328519
0.0232748
0.0164646
0.0160097
0.0119115
0.00910644
0.0072422
0.00603207
0.00527624
0.00484929
0.00469849
0.00486376
0.00553608
0.00715129
0.0104532
0.0163826
0.0256665
0.0381701
0.0523564
0.0653725
0.0740181
0.0761687
0.0717232
0.0624462
0.0509372
0.0395144
0.0296184
0.0217994
0.0160097
0.0154358
0.0120979
0.00976819
0.00820907
0.00720306
0.0065893
0.00625958
0.00615468
0.00626708
0.00666025
0.00751103
0.0091598
0.0121106
0.0168928
0.0237415
0.032205
0.040952
0.0480601
0.0517683
0.051271
0.0470205
0.0403767
0.0329227
0.025902
0.0200039
0.0154358
0.0149199
0.0124757
0.0107643
0.00964201
0.00895303
0.00857429
0.00841924
0.00843667
0.00860764
0.00894764
0.00951992
0.0104599
0.0119925
0.0144
0.0178995
0.022438
0.0275125
0.0321774
0.0353374
0.0362083
0.0346611
0.0312277
0.0267995
0.0222501
0.0181915
0.0149199
0.0146661
0.0132071
0.0122688
0.011759
0.0115567
0.0115594
0.0116937
0.0119171
0.0122126
0.0125818
0.0130424
0.0136354
0.014438
0.0155669
0.0171433
0.0192101
0.0216257
0.0240124
0.0258307
0.0265823
0.0260335
0.0243172
0.0218543
0.019163
0.016679
0.0146661
0.0148409
0.0144401
0.0144639
0.0148185
0.0153711
0.0160012
0.016621
0.0171825
0.0176708
0.0180891
0.0184447
0.0187443
0.019002
0.0192526
0.0195543
0.0199653
0.0204929
0.0210454
0.0214309
0.0214253
0.020882
0.0198168
0.0184136
0.0169509
0.0156985
0.0148409
0.0155066
0.0162443
0.0174785
0.0190658
0.0208004
0.022478
0.023937
0.0250828
0.0258848
0.0263531
0.02651
0.0263732
0.0259559
0.0252835
0.0244104
0.0234202
0.0224024
0.0214142
0.0204566
0.0194872
0.0184671
0.0174146
0.0164303
0.0156771
0.0153275
0.0155066
0.0165742
0.0185389
0.0212924
0.0246231
0.0281916
0.0316141
0.0345475
0.0367577
0.0381417
0.0387023
0.0385009
0.0376175
0.036136
0.0341529
0.0317933
0.0292152
0.0265912
0.0240753
0.0217736
0.0197409
0.0180049
0.0166063
0.0156282
0.0152008
0.0154743
0.0165742
0.0178011
0.0210407
0.0256283
0.0313254
0.0376328
0.0438802
0.049375
0.0535639
0.0561306
0.0570023
0.0562881
0.0541999
0.0509982
0.0469694
0.0424204
0.0376659
0.0330012
0.0286669
0.0248257
0.0215643
0.0189224
0.0169364
0.0156791
0.0152811
0.0159238
0.0178011
0.0188557
0.0232816
0.0298929
0.0385582
0.048685
0.0592557
0.0690245
0.0768231
0.08183
0.0836974
0.0825199
0.0787103
0.0728631
0.0656498
0.0577446
0.0497618
0.0422011
0.0354092
0.0295751
0.0247598
0.020953
0.0181372
0.0163454
0.0157009
0.0164329
0.0188557
0.0193153
0.0245701
0.0330303
0.0448834
0.0596641
0.0761027
0.0922783
0.106064
0.115673
0.120067
0.119086
0.113325
0.103883
0.0920908
0.0792768
0.0665905
0.0548827
0.0446625
0.0361303
0.0292658
0.0239384
0.0200106
0.0174207
0.016243
0.0167285
0.0193153
0.0189818
0.0244402
0.034076
0.0486523
0.0681987
0.091546
0.116235
0.13896
0.156414
0.166173
0.167247
0.160143
0.146533
0.128726
0.109125
0.089799
0.072217
0.0571808
0.0449196
0.03528
0.0279309
0.022532
0.0188511
0.0168442
0.0167179
0.0189818

VECTORS u double
-144.001 125.623 0.0
-141.677 129.231 0.0
-140.475 133.185 0.0
-140.235 136.782 0.0
-140.602 139.773 0.0
-141.294 142.174 0.0
-142.152 144.062 0.0
-143.102 145.503 0.0
-144.129 146.532 0.0
-145.248 147.166 0.0
-146.482 147.407 0.0
-147.847 147.257 0.0
-149.327 146.716 0.0
-150.873 145.788 0.0
-152.402 144.481 0.0
-153.807 142.806 0.0
-154.982 140.781 0.0
-155.833 138.437 0.0
-156.293 135.819 0.0
-156.314 132.995 0.0
-155.846 130.07 0.0
-154.806 127.213 0.0
-153.065 124.74 0.0
-150.507 123.206 0.0
-147.281 123.366 0.0
-144.001 125.623 0.0
-145.669 124.129 0.0
-142.698 127.728 0.0
-141.055 131.92 0.0
-140.639 135.843 0.0
-141.002 139.108 0.0
-141.783 141.722 0.0
-142.775 143.784 0.0
-143.883 145.375 0.0
-145.078 146.542 0.0
-146.364 147.303 0.0
-147.759 147.663 0.0
-149.269 147.622 0.0
-150.877 147.182 0.0
-152.529 146.348 0.0
-154.143 145.127 0.0
-155.611 143.529 0.0
-156.826 141.569 0.0
-157.699 139.272 0.0
-158.166 136.674 0.0
-158.194 133.835 0.0
-157.75 130.839 0.0
-156.778 127.822 0.0
-155.157 125.033 0.0
-152.725 122.954 0.0
-149.455 122.394 0.0
-145.669 124.129 0.0
-147.808 122.126 0.0
-144.096 125.367 0.0
-141.791 129.791 0.0
-141.028 134.129 0.0
-141.292 137.757 0.0
-142.103 140.645 0.0
-143.188 142.922 0.0
-144.42 144.697 0.0
-145.753 146.029 0.0
-147.183 146.942 0.0
-148.72 147.441 0.0
-150.364 147.526 0.0
-152.095 147.198 0.0
-153.859 146.466 0.0
-155.569 145.338 0.0
-157.119 143.828 0.0
-158.4 141.948 0.0
-159.323 139.72 0.0
-159.828 137.174 0.0
-159.889 134.36 0.0
-159.497 131.349 0.0
-158.624 128.249 0.0
-157.18 125.239 0.0
-154.984 122.681 0.0
-151.852 121.301 0.0
-147.808 122.126 0.0
-150.169 119.942 0.0
-145.859 122.356 0.0
-142.721 126.809 0.0
-141.412 131.616 0.0
-141.464 135.705 0.0
-142.251 138.931 0.0
-143.395 141.459 0.0
-144.724 143.441 0.0
-146.172 144.959 0.0
-147.724 146.046 0.0
-149.384 146.707 0.0
-151.147 146.94 0.0
-152.991 146.745 0.0
-154.861 146.13 0.0
-156.672 145.109 0.0
-158.315 143.696 0.0
-159.683 141.911 0.0
-160.682 139.772 0.0
-161.255 137.306 0.0
-161.379 134.554 0.0
-161.057 131.575 0.0
-160.285 128.452 0.0
-159.013 125.313 0.0
-157.083 122.399 0.0
-154.224 120.254 0.0
-150.169 119.942 0.0
-152.586 117.935 0.0
-148.011 119.072 0.0
-143.968 123.088 0.0
-141.854 128.31 0.0
-141.527 132.967 0.0
-142.216 136.616 0.0
-143.388 139.433 0.0
-144.794 141.636 0.0
-146.341 143.35 0.0
-147.999 144.623 0.0
-149.766 145.464 0.0
-151.634 145.868 0.0
-153.58 145.83 0.0
-155.55 145.356 0.0
-157.459 144.461 0.0
-159.203 143.164 0.0
-160.672 141.489 0.0
-161.771 139.457 0.0
-162.437 137.093 0.0
-162.647 134.429 0.0
-162.405 131.514 0.0
-161.723 128.413 0.0
-160.58 125.219 0.0
-158.872 122.087 0.0
-156.355 119.37 0.0
-152.586 117.935 0.0
-154.756 116.374 0.0
-150.387 116.03 0.0
-145.661 118.906 0.0
-142.487 124.229 0.0
-141.527 129.551 0.0
-142.004 133.747 0.0
-143.16 136.914 0.0
-144.625 139.355 0.0
-146.258 141.264 0.0
-148.014 142.723 0.0
-149.879 143.752 0.0
-151.844 144.343 0.0
-153.884 144.486 0.0
-155.948 144.181 0.0
-157.955 143.44 0.0
-159.802 142.284 0.0
-161.38 140.741 0.0
-162.593 138.834 0.0
-163.37 136.588 0.0
-163.681 134.032 0.0
-163.524 131.203 0.0
-162.913 128.153 0.0
-161.851 124.958 0.0
-160.29 121.724 0.0
-158.068 118.67 0.0
-154.756 116.374 0.0
-156.412 115.337 0.0
-152.579 113.742 0.0
-147.737 114.864 0.0
-143.484 119.51 0.0
-141.557 125.427 0.0
-141.636 130.351 0.0
-142.712 133.982 0.0
-144.214 136.699 0.0
-145.924 138.804 0.0
-147.77 140.439 0.0
-149.729 141.649 0.0
-151.788 142.433 0.0
-153.921 142.773 0.0
-156.077 142.663 0.0
-158.18 142.107 0.0
-160.131 141.122 0.0
-161.823 139.736 0.0
-163.155 137.975 0.0
-164.051 135.866 0.0
-164.469 133.432 0.0
-164.396 130.705 0.0
-163.843 127.731 0.0
-162.826 124.575 0.0
-161.338 121.327 0.0
-159.307 118.13 0.0
-156.412 115.337 0.0
-157.475 114.755 0.0
-154.18 112.415 0.0
-149.774 111.788 0.0
-144.912 114.687 0.0
-141.751 120.598 0.0
-141.142 126.387 0.0
-142.036 130.68 0.0
-143.552 133.764 0.0
-145.333 136.084 0.0
-147.266 137.886 0.0
-149.319 139.263 0.0
-151.471 140.23 0.0
-153.697 140.773 0.0
-155.946 140.873 0.0
-158.146 140.527 0.0
-160.2 139.744 0.0
-162.004 138.544 0.0
-163.455 136.955 0.0
-164.47 135.001 0.0
-164.993 132.706 0.0
-165.001 130.099 0.0
-164.498 127.223 0.0
-163.506 124.143 0.0
-162.045 120.943 0.0
-160.104 117.738 0.0
-157.475 114.755 0.0
-158.009 114.525 0.0
-155.053 111.913 0.0
-151.214 110.173 0.0
-146.468 110.857 0.0
-142.229 115.42 0.0
-140.56 121.781 0.0
-141.102 126.974 0.0
-142.606 130.602 0.0
-144.465 133.204 0.0
-146.493 135.18 0.0
-148.641 136.707 0.0
-150.89 137.839 0.0
-153.21 138.573 0.0
-155.555 138.887 0.0
-157.851 138.765 0.0
-160.007 138.206 0.0
-161.919 137.22 0.0
-163.483 135.828 0.0
-164.61 134.053 0.0
-165.234 131.919 0.0
-165.319 129.453 0.0
-164.863 126.701 0.0
-163.89 123.73 0.0
-162.434 120.627 0.0
-160.518 117.501 0.0
-158.009 114.525 0.0
-158.111 114.575 0.0
-155.292 111.984 0.0
-151.814 109.842 0.0
-147.525 108.971 0.0
-142.875 111.095 0.0
-139.936 116.725 0.0
-139.823 122.775 0.0
-141.282 127.194 0.0
-143.259 130.219 0.0
-145.415 132.411 0.0
-147.677 134.085 0.0
-150.03 135.361 0.0
-152.449 136.263 0.0
-154.89 136.775 0.0
-157.282 136.877 0.0
-159.536 136.551 0.0
-161.549 135.798 0.0
-163.217 134.627 0.0
-164.446 133.056 0.0
-165.164 131.105 0.0
-165.325 128.807 0.0
-164.919 126.209 0.0
-163.968 123.381 0.0
-162.514 120.419 0.0
-160.594 117.431 0.0
-158.111 114.575 0.0
-157.848 114.853 0.0
-155.042 112.437 0.0
-151.686 110.337 0.0
-147.718 108.921 0.0
-143.201 109.108 0.0
-139.292 112.412 0.0
-138.088 118.227 0.0
-139.367 123.484 0.0
-141.552 127.126 0.0
-143.931 129.631 0.0
-146.366 131.473 0.0
-148.853 132.877 0.0
-151.385 133.921 0.0
-153.928 134.606 0.0
-156.416 134.912 0.0
-158.764 134.814 0.0
-160.87 134.298 0.0
-162.632 133.362 0.0
-163.954 132.014 0.0
-164.758 130.273 0.0
-164.994 128.17 0.0
-164.645 125.756 0.0
-163.728 123.109 0.0
-162.283 120.325 0.0
-160.35 117.52 0.0
-157.848 114.853 0.0
-157.247 115.313 0.0
-154.395 113.161 0.0
-151.017 111.321 0.0
-147.145 109.998 0.0
-142.818 109.54 0.0
-138.523 110.753 0.0
-135.976 114.551 0.0
-136.574 119.71 0.0
-139.008 123.952 0.0
-141.806 126.872 0.0
-144.562 128.926 0.0
-147.269 130.456 0.0
-149.959 131.613 0.0
-152.624 132.437 0.0
-155.217 132.916 0.0
-157.659 133.023 0.0
-159.854 132.733 0.0
-161.702 132.032 0.0
-163.108 130.919 0.0
-163.995 129.406 0.0
-164.307 127.523 0.0
-164.022 125.325 0.0
-163.15 122.89 0.0
-161.726 120.321 0.0
-159.783 117.74 0.0
-157.247 115.313 0.0
-156.306 115.908 0.0
-153.386 114.09 0.0
-149.932 112.632 0.0
-146.036 111.696 0.0
-141.797 111.418 0.0
-137.481 111.997 0.0
-133.982 113.855 0.0
-133.087 117.26 0.0
-135.232 121.168 0.0
-138.597 124.305 0.0
-141.949 126.542 0.0
-145.076 128.174 0.0
-148.042 129.409 0.0
-150.895 130.327 0.0
-153.626 130.934 0.0
-156.177 131.208 0.0
-158.465 131.118 0.0
-160.399 130.638 0.0
-161.888 129.757 0.0
-162.855 128.481 0.0
-163.246 126.837 0.0
-163.032 124.877 0.0
-162.218 122.683 0.0
-160.826 120.364 0.0
-158.881 118.046 0.0
-156.306 115.908 0.0
-155.01 116.602 0.0
-152.021 115.19 0.0
-148.487 114.212 0.0
-144.555 113.808 0.0
-140.384 114.034 0.0
-136.211 114.859 0.0
-132.476 116.213 0.0
-130.192 118.072 0.0
-130.761 120.379 0.0
-133.986 122.736 0.0
-138.055 124.711 0.0
-141.906 126.247 0.0
-145.387 127.444 0.0
-148.579 128.371 0.0
-151.536 129.038 0.0
-154.247 129.421 0.0
-156.657 129.483 0.0
-158.69 129.192 0.0
-160.268 128.526 0.0
-161.321 127.483 0.0
-161.796 126.082 0.0
-161.662 124.377 0.0
-160.914 122.448 0.0
-159.562 120.408 0.0
-157.62 118.395 0.0
-155.01 116.602 0.0
-153.345 117.383 0.0
-150.303 116.463 0.0
-146.725 116.06 0.0
-142.819 116.283 0.0
-138.798 117.115 0.0
-134.906 118.42 0.0
-131.419 119.976 0.0
-128.757 121.517 0.0
-127.728 122.801 0.0
-129.239 123.76 0.0
-132.966 124.558 0.0
-137.432 125.34 0.0
-141.658 126.109 0.0
-145.426 126.809 0.0
-148.778 127.382 0.0
-151.756 127.766 0.0
-154.353 127.903 0.0
-156.527 127.744 0.0
-158.22 127.254 0.0
-159.375 126.419 0.0
-159.945 125.255 0.0
-159.899 123.807 0.0
-159.224 122.158 0.0
-157.918 120.426 0.0
-155.983 118.764 0.0
-153.345 117.383 0.0
-151.316 118.276 0.0
-148.261 117.944 0.0
-144.72 118.21 0.0
-140.961 119.114 0.0
-137.236 120.549 0.0
-133.78 122.3 0.0
-130.78 124.108 0.0
-128.413 125.714 0.0
-126.957 126.863 0.0
-126.922 127.334 0.0
-128.84 127.133 0.0
-132.524 126.643 0.0
-136.974 126.301 0.0
-141.314 126.237 0.0
-145.203 126.352 0.0
-148.588 126.498 0.0
-151.476 126.549 0.0
-153.861 126.41 0.0
-155.715 126.02 0.0
-157.002 125.345 0.0
-157.687 124.386 0.0
-157.741 123.184 0.0
-157.145 121.822 0.0
-155.889 120.427 0.0
-153.967 119.167 0.0
-151.316 118.276 0.0
-148.986 119.349 0.0
-145.991 119.695 0.0
-142.612 120.689 0.0