# vtk DataFile Version 2.0
Particulate Flow Equations Solution
ASCII
DATASET STRUCTURED_GRID
DIMENSIONS 26 26 1
POINTS 676 double
-10 -10 0
-9.23077 -10 0
-8.46154 -10 0
-7.69231 -10 0
-6.92308 -10 0
-6.15385 -10 0
-5.38462 -10 0
-4.61538 -10 0
-3.84615 -10 0
-3.07692 -10 0
-2.30769 -10 0
-1.53846 -10 0
-0.769231 -10 0
5.55112e-016 -10 0
0.769231 -10 0
1.53846 -10 0
2.30769 -10 0
3.07692 -10 0
3.84615 -10 0
4.61538 -10 0
5.38462 -10 0
6.15385 -10 0
6.92308 -10 0
7.69231 -10 0
8.46154 -10 0
10 -10 0
-10 -9.23077 0
-9.23077 -9.23077 0
-8.46154 -9.23077 0
-7.69231 -9.23077 0
-6.92308 -9.23077 0
-6.15385 -9.23077 0
-5.38462 -9.23077 0
-4.61538 -9.23077 0
-3.84615 -9.23077 0
-3.07692 -9.23077 0
-2.30769 -9.23077 0
-1.53846 -9.23077 0
-0.769231 -9.23077 0
5.55112e-016 -9.23077 0
0.769231 -9.23077 0
1.53846 -9.23077 0
2.30769 -9.23077 0
3.07692 -9.23077 0
3.84615 -9.23077 0
4.61538 -9.23077 0
5.38462 -9.23077 0
6.15385 -9.23077 0
6.92308 -9.23077 0
7.69231 -9.23077 0
8.46154 -9.23077 0
10 -9.23077 0
-10 -8.46154 0
-9.23077 -8.46154 0
-8.46154 -8.46154 0
-7.69231 -8.46154 0
-6.92308 -8.46154 0
-6.15385 -8.46154 0
-5.38462 -8.46154 0
-4.61538 -8.46154 0
-3.84615 -8.46154 0
-3.07692 -8.46154 0
-2.30769 -8.46154 0
-1.53846 -8.46154 0
-0.769231 -8.46154 0
5.55112e-016 -8.46154 0
0.769231 -8.46154 0
1.53846 -8.46154 0
2.30769 -8.46154 0
3.07692 -8.46154 0
3.84615 -8.46154 0
4.61538 -8.46154 0
5.38462 -8.46154 0
6.15385 -8.46154 0
6.92308 -8.46154 0
7.69231 -8.46154 0
8.46154 -8.46154 0
10 -8.46154 0
-10 -7.69231 0
-9.23077 -7.69231 0
-8.46154 -7.69231 0
-7.69231 -7.69231 0
-6.92308 -7.69231 0
-6.15385 -7.69231 0
-5.38462 -7.69231 0
-4.61538 -7.69231 0
-3.84615 -7.69231 0
-3.07692 -7.69231 0
-2.30769 -7.69231 0
-1.53846 -7.69231 0
-0.769231 -7.69231 0
5.55112e-016 -7.69231 0
0.769231 -7.69231 0
1.53846 -7.69231 0
2.30769 -7.69231 0
3.07692 -7.69231 0
3.84615 -7.69231 0
4.61538 -7.69231 0
5.38462 -7.69231 0
6.15385 -7.69231 0
6.92308 -7.69231 0
7.69231 -7.69231 0
8.46154 -7.69231 0
10 -7.69231 0
-10 -6.92308 0
-9.23077 -6.92308 0
-8.46154 -6.92308 0
-7.69231 -6.92308 0
-6.92308 -6.92308 0
-6.15385 -6.92308 0
-5.38462 -6.92308 0
-4.61538 -6.92308 0
-3.84615 -6.92308 0
-3.07692 -6.92308 0
-2.30769 -6.92308 0
-1.53846 -6.92308 0
-0.769231 -6.92308 0
5.55112e-016 -6.92308 0
0.769231 -6.92308 0
1.53846 -6.92308 0
2.30769 -6.92308 0
3.07692 -6.92308 0
3.84615 -6.92308 0
4.61538 -6.92308 0
5.38462 -6.92308 0
6.15385 -6.92308 0
6.92308 -6.92308 0
7.69231 -6.92308 0
8.46154 -6.92308 0
10 -6.92308 0
-10 -6.15385 0
-9.23077 -6.15385 0
-8.46154 -6.15385 0
-7.69231 -6.15385 0
-6.92308 -6.15385 0
-6.15385 -6.15385 0
-5.38462 -6.15385 0
-4.61538 -6.15385 0
-3.84615 -6.15385 0
-3.07692 -6.15385 0
-2.30769 -6.15385 0
-1.53846 -6.15385 0
-0.769231 -6.15385 0
5.55112e-016 -6.15385 0
0.769231 -6.15385 0
1.53846 -6.15385 0
2.30769 -6.15385 0
3.07692 -6.15385 0
3.84615 -6.15385 0
4.61538 -6.15385 0
5.38462 -6.15385 0
6.15385 -6.15385 0
6.92308 -6.15385 0
7.69231 -6.15385 0
8.46154 -6.15385 0
10 -6.15385 0
-10 -5.38462 0
-9.23077 -5.38462 0
-8.46154 -5.38462 0
-7.69231 -5.38462 0
-6.92308 -5.38462 0
-6.15385 -5.38462 0
-5.38462 -5.38462 0
-4.61538 -5.38462 0
-3.84615 -5.38462 0
-3.07692 -5.38462 0
-2.30769 -5.38462 0
-1.53846 -5.38462 0
-0.769231 -5.38462 0
5.55112e-016 -5.38462 0
0.769231 -5.38462 0
1.53846 -5.38462 0
2.30769 -5.38462 0
3.07692 -5.38462 0
3.84615 -5.38462 0
4.61538 -5.38462 0
5.38462 -5.38462 0
6.15385 -5.38462 0
6.92308 -5.38462 0
7.69231 -5.38462 0
8.46154 -5.38462 0
10 -5.38462 0
-10 -4.61538 0
-9.23077 -4.61538 0
-8.46154 -4.61538 0
-7.69231 -4.61538 0
-6.92308 -4.61538 0
-6.15385 -4.61538 0
-5.38462 -4.61538 0
-4.61538 -4.61538 0
-3.84615 -4.61538 0
-3.07692 -4.61538 0
-2.30769 -4.61538 0
-1.53846 -4.61538 0
-0.769231 -4.61538 0
5.55112e-016 -4.61538 0
0.769231 -4.61538 0
1.53846 -4.61538 0
2.30769 -4.61538 0
3.07692 -4.61538 0
3.84615 -4.61538 0
4.61538 -4.61538 0
5.38462 -4.61538 0
6.15385 -4.61538 0
6.92308 -4.61538 0
7.69231 -4.61538 0
8.46154 -4.61538 0
10 -4.61538 0
-10 -3.84615 0
-9.23077 -3.84615 0
-8.46154 -3.84615 0
-7.69231 -3.84615 0
-6.92308 -3.84615 0
-6.15385 -3.84615 0
-5.38462 -3.84615 0
-4.61538 -3.84615 0
-3.84615 -3.84615 0
-3.07692 -3.84615 0
-2.30769 -3.84615 0
-1.53846 -3.84615 0
-0.769231 -3.84615 0
5.55112e-016 -3.84615 0
0.769231 -3.84615 0
1.53846 -3.84615 0
2.30769 -3.84615 0
3.07692 -3.84615 0
3.84615 -3.84615 0
4.61538 -3.84615 0
5.38462 -3.84615 0
6.15385 -3.84615 0
6.92308 -3.84615 0
7.69231 -3.84615 0
8.46154 -3.84615 0
10 -3.84615 0
-10 -3.07692 0
-9.23077 -3.07692 0
-8.46154 -3.07692 0
-7.69231 -3.07692 0
-6.92308 -3.07692 0
-6.15385 -3.07692 0
-5.38462 -3.07692 0
-4.61538 -3.07692 0
-3.84615 -3.07692 0
-3.07692 -3.07692 0
-2.30769 -3.07692 0
-1.53846 -3.07692 0
-0.769231 -3.07692 0
5.55112e-016 -3.07692 0
0.769231 -3.07692 0
1.53846 -3.07692 0
2.30769 -3.07692 0
3.07692 -3.07692 0
3.84615 -3.07692 0
4.61538 -3.07692 0
5.38462 -3.07692 0
6.15385 -3.07692 0
6.92308 -3.07692 0
7.69231 -3.07692 0
8.46154 -3.07692 0
10 -3.07692 0
-10 -2.30769 0
-9.23077 -2.30769 0
-8.46154 -2.30769 0
-7.69231 -2.30769 0
-6.92308 -2.30769 0
-6.15385 -2.30769 0
-5.38462 -2.30769 0
-4.61538 -2.30769 0
-3.84615 -2.30769 0
-3.07692 -2.30769 0
-2.30769 -2.30769 0
-1.53846 -2.30769 0
-0.769231 -2.30769 0
5.55112e-016 -2.30769 0
0.769231 -2.30769 0
1.53846 -2.30769 0
2.30769 -2.30769 0
3.07692 -2.30769 0
3.84615 -2.30769 0
4.61538 -2.30769 0
5.38462 -2.30769 0
6.15385 -2.30769 0
6.92308 -2.30769 0
7.69231 -2.30769 0
8.46154 -2.30769 0
10 -2.30769 0
-10 -1.53846 0
-9.23077 -1.53846 0
-8.46154 -1.53846 0
-7.69231 -1.53846 0
-6.92308 -1.53846 0
-6.15385 -1.53846 0
-5.38462 -1.53846 0
-4.61538 -1.53846 0
-3.84615 -1.53846 0
-3.07692 -1.53846 0
-2.30769 -1.53846 0
-1.53846 -1.53846 0
-0.769231 -1.53846 0
5.55112e-016 -1.53846 0
0.769231 -1.53846 0
1.53846 -1.53846 0
2.30769 -1.53846 0
3.07692 -1.53846 0
3.84615 -1.53846 0
4.61538 -1.53846 0
5.38462 -1.53846 0
6.15385 -1.53846 0
6.92308 -1.53846 0
7.69231 -1.53846 0
8.46154 -1.53846 0
10 -1.53846 0
-10 -0.769231 0
-9.23077 -0.769231 0
-8.46154 -0.769231 0
-7.69231 -0.769231 0
-6.92308 -0.769231 0
-6.15385 -0.769231 0
-5.38462 -0.769231 0
-4.61538 -0.769231 0
-3.84615 -0.769231 0
-3.07692 -0.769231 0
-2.30769 -0.769231 0
-1.53846 -0.769231 0
-0.769231 -0.769231 0
5.55112e-016 -0.769231 0
0.769231 -0.769231 0
1.53846 -0.769231 0
2.30769 -0.769231 0
3.07692 -0.769231 0
3.84615 -0.769231 0
4.61538 -0.769231 0
5.38462 -0.769231 0
6.15385 -0.769231 0
6.92308 -0.769231 0
7.69231 -0.769231 0
8.46154 -0.769231 0
10 -0.769231 0
-10 5.55112e-016 0
-9.23077 5.55112e-016 0
-8.46154 5.55112e-016 0
-7.69231 5.55112e-016 0
-6.92308 5.55112e-016 0
-6.15385 5.55112e-016 0
-5.38462 5.55112e-016 0
-4.61538 5.55112e-016 0
-3.84615 5.55112e-016 0
-3.07692 5.55112e-016 0
-2.30769 5.55112e-016 0
-1.53846 5.55112e-016 0
-0.769231 5.55112e-016 0
5.55112e-016 5.55112e-016 0
0.769231 5.55112e-016 0
1.53846 5.55112e-016 0
2.30769 5.55112e-016 0
3.07692 5.55112e-016 0
3.84615 5.55112e-016 0
4.61538 5.55112e-016 0
5.38462 5.55112e-016 0
6.15385 5.55112e-016 0
6.92308 5.55112e-016 0
7.69231 5.55112e-016 0
8.46154 5.55112e-016 0
10 5.55112e-016 0
-10 0.769231 0
-9.23077 0.769231 0
-8.46154 0.769231 0
-7.69231 0.769231 0
-6.92308 0.769231 0
-6.15385 0.769231 0
-5.38462 0.769231 0
-4.61538 0.769231 0
-3.84615 0.769231 0
-3.07692 0.769231 0
-2.30769 0.769231 0
-1.53846 0.769231 0
-0.769231 0.769231 0
5.55112e-016 0.769231 0
0.769231 0.769231 0
1.53846 0.769231 0
2.30769 0.769231 0
3.07692 0.769231 0
3.84615 0.769231 0
4.61538 0.769231 0
5.38462 0.769231 0
6.15385 0.769231 0
6.92308 0.769231 0
7.69231 0.769231 0
8.46154 0.769231 0
10 0.769231 0
-10 1.53846 0
-9.23077 1.53846 0
-8.46154 1.53846 0
-7.69231 1.53846 0
-6.92308 1.53846 0
-6.15385 1.53846 0
-5.38462 1.53846 0
-4.61538 1.53846 0
-3.84615 1.53846 0
-3.07692 1.53846 0
-2.30769 1.53846 0
-1.53846 1.53846 0
-0.769231 1.53846 0
5.55112e-016 1.53846 0
0.769231 1.53846 0
1.53846 1.53846 0
2.30769 1.53846 0
3.07692 1.53846 0
3.84615 1.53846 0
4.61538 1.53846 0
5.38462 1.53846 0
6.15385 1.53846 0
6.92308 1.53846 0
7.69231 1.53846 0
8.46154 1.53846 0
10 1.53846 0
-10 2.30769 0
-9.23077 2.30769 0
-8.46154 2.30769 0
-7.69231 2.30769 0
-6.92308 2.30769 0
-6.15385 2.30769 0
-5.38462 2.30769 0
-4.61538 2.30769 0
-3.84615 2.30769 0
-3.07692 2.30769 0
-2.30769 2.30769 0
-1.53846 2.30769 0
-0.769231 2.30769 0
5.55112e-016 2.30769 0
0.769231 2.30769 0
1.53846 2.30769 0
2.30769 2.30769 0
3.07692 2.30769 0
3.84615 2.30769 0
4.61538 2.30769 0
5.38462 2.30769 0
6.15385 2.30769 0
6.92308 2.30769 0
7.69231 2.30769 0
8.46154 2.30769 0
10 2.30769 0
-10 3.07692 0
-9.23077 3.07692 0
-8.46154 3.07692 0
-7.69231 3.07692 0
-6.92308 3.07692 0
-6.15385 3.07692 0
-5.38462 3.07692 0
-4.61538 3.07692 0
-3.84615 3.07692 0
-3.07692 3.07692 0
-2.30769 3.07692 0
-1.53846 3.07692 0
-0.769231 3.07692 0
5.55112e-016 3.07692 0
0.769231 3.07692 0
1.53846 3.07692 0
2.30769 3.07692 0
3.07692 3.07692 0
3.84615 3.07692 0
4.61538 3.07692 0
5.38462 3.07692 0
6.15385 3.07692 0
6.92308 3.07692 0
7.69231 3.07692 0
8.46154 3.07692 0
10 3.07692 0
-10 3.84615 0
-9.23077 3.84615 0
-8.46154 3.84615 0
-7.69231 3.84615 0
-6.92308 3.84615 0
-6.15385 3.84615 0
-5.38462 3.84615 0
-4.61538 3.84615 0
-3.84615 3.84615 0
-3.07692 3.84615 0
-2.30769 3.84615 0
-1.53846 3.84615 0
-0.769231 3.84615 0
5.55112e-016 3.84615 0
0.769231 3.84615 0
1.53846 3.84615 0
2.30769 3.84615 0
3.07692 3.84615 0
3.84615 3.84615 0
4.61538 3.84615 0
5.38462 3.84615 0
6.15385 3.84615 0
6.92308 3.84615 0
7.69231 3.84615 0
8.46154 3.84615 0
10 3.84615 0
-10 4.61538 0
-9.23077 4.61538 0
-8.46154 4.61538 0
-7.69231 4.61538 0
-6.92308 4.61538 0
-6.15385 4.61538 0
-5.38462 4.61538 0
-4.61538 4.61538 0
-3.84615 4.61538 0
-3.07692 4.61538 0
-2.30769 4.61538 0
-1.53846 4.61538 0
-0.769231 4.61538 0
5.55112e-016 4.61538 0
0.769231 4.61538 0
1.53846 4.61538 0
2.30769 4.61538 0
3.07692 4.61538 0
3.84615 4.61538 0
4.61538 4.61538 0
5.38462 4.61538 0
6.15385 4.61538 0
6.92308 4.61538 0
7.69231 4.61538 0
8.46154 4.61538 0
10 4.61538 0
-10 5.38462 0
-9.23077 5.38462 0
-8.46154 5.38462 0
-7.69231 5.38462 0
-6.92308 5.38462 0
-6.15385 5.38462 0
-5.38462 5.38462 0
-4.61538 5.38462 0
-3.84615 5.38462 0
-3.07692 5.38462 0
-2.30769 5.38462 0
-1.53846 5.38462 0
-0.769231 5.38462 0
5.55112e-016 5.38462 0
0.769231 5.38462 0
1.53846 5.38462 0
2.30769 5.38462 0
3.07692 5.38462 0
3.84615 5.38462 0
4.61538 5.38462 0
5.38462 5.38462 0
6.15385 5.38462 0
6.92308 5.38462 0
7.69231 5.38462 0
8.46154 5.38462 0
10 5.38462 0
-10 6.15385 0
-9.23077 6.15385 0
-8.46154 6.15385 0
-7.69231 6.15385 0
-6.92308 6.15385 0
-6.15385 6.15385 0
-5.38462 6.15385 0
-4.61538 6.15385 0
-3.84615 6.15385 0
-3.07692 6.15385 0
-2.30769 6.15385 0
-1.53846 6.15385 0
-0.769231 6.15385 0
5.55112e-016 6.15385 0
0.769231 6.15385 0
1.53846 6.15385 0
2.30769 6.15385 0
3.07692 6.15385 0
3.84615 6.15385 0
4.61538 6.15385 0
5.38462 6.15385 0
6.15385 6.15385 0
6.92308 6.15385 0
7.69231 6.15385 0
8.46154 6.15385 0
10 6.15385 0
-10 6.92308 0
-9.23077 6.92308 0
-8.46154 6.92308 0
-7.69231 6.92308 0
-6.92308 6.92308 0
-6.15385 6.92308 0
-5.38462 6.92308 0
-4.61538 6.92308 0
-3.84615 6.92308 0
-3.07692 6.92308 0
-2.30769 6.92308 0
-1.53846 6.92308 0
-0.769231 6.92308 0
5.55112e-016 6.92308 0
0.769231 6.92308 0
1.53846 6.92308 0
2.30769 6.92308 0
3.07692 6.92308 0
3.84615 6.92308 0
4.61538 6.92308 0
5.38462 6.92308 0
6.15385 6.92308 0
6.92308 6.92308 0
7.69231 6.92308 0
8.46154 6.92308 0
10 6.92308 0
-10 7.69231 0
-9.23077 7.69231 0
-8.46154 7.69231 0
-7.69231 7.69231 0
-6.92308 7.69231 0
-6.15385 7.69231 0
-5.38462 7.69231 0
-4.61538 7.69231 0
-3.84615 7.69231 0
-3.07692 7.69231 0
-2.30769 7.69231 0
-1.53846 7.69231 0
-0.769231 7.69231 0
5.55112e-016 7.69231 0
0.769231 7.69231 0
1.53846 7.69231 0
2.30769 7.69231 0
3.07692 7.69231 0
3.84615 7.69231 0
4.61538 7.69231 0
5.38462 7.69231 0
6.15385 7.69231 0
6.92308 7.69231 0
7.69231 7.69231 0
8.46154 7.69231 0
10 7.69231 0
-10 8.46154 0
-9.23077 8.46154 0
-8.46154 8.46154 0
-7.69231 8.46154 0
-6.92308 8.46154 0
-6.15385 8.46154 0
-5.38462 8.46154 0
-4.61538 8.46154 0
-3.84615 8.46154 0
-3.07692 8.46154 0
-2.30769 8.46154 0
-1.53846 8.46154 0
-0.769231 8.46154 0
5.55112e-016 8.46154 0
0.769231 8.46154 0
1.53846 8.46154 0
2.30769 8.46154 0
3.07692 8.46154 0
3.84615 8.46154 0
4.61538 8.46154 0
5.38462 8.46154 0
6.15385 8.46154 0
6.92308 8.46154 0
7.69231 8.46154 0
8.46154 8.46154 0
10 8.46154 0
-10 10 0
-9.23077 10 0
-8.46154 10 0
-7.69231 10 0
-6.92308 10 0
-6.15385 10 0
-5.38462 10 0
-4.61538 10 0
-3.84615 10 0
-3.07692 10 0
-2.30769 10 0
-1.53846 10 0
-0.769231 10 0
5.55112e-016 10 0
0.769231 10 0
1.53846 10 0
2.30769 10 0
3.07692 10 0
3.84615 10 0
4.61538 10 0
5.38462 10 0
6.15385 10 0
6.92308 10 0
7.69231 10 0
8.46154 10 0
10 10 0

POINT_DATA 676
SCALARS h double 1
LOOkUP_TABLE default
0.00309395
0.0029511
0.00287321
0.002842
0.00284918
0.00289609
0.00299401
0.00316714
0.0034624
0.00397069
0.00483857
0.0062076
0.00805807
0.0100789
0.011729
0.0124995
0.0121919
0.0109984
0.00934507
0.00765424
0.00619504
0.00506629
0.00425409
0.00369716
0.00332864
0.00309395
0.00352916
0.00352561
0.00358587
0.0036911
0.00383137
0.00400798
0.00423273
0.00452491
0.00490505
0.00538838
0.0059819
0.0066806
0.00744793
0.00818586
0.00873397
0.00892571
0.0086753
0.00802977
0.00714438
0.00620451
0.00535385
0.00466691
0.00416067
0.00382023
0.003619
0.00352916
0.00430054
0.00453295
0.00484232
0.00519629
0.0055714
0.00595989
0.00636895
0.00681327
0.00730039
0.00781349
0.00830172
0.00869013
0.00890818
0.00891585
0.00870818
0.00830407
0.00773862
0.00706472
0.00635177
0.005673
0.00508856
0.00463618
0.00433293
0.00418174
0.00417599
0.00430054
0.00558986
0.00625991
0.00704891
0.00788325
0.00869766
0.00945163
0.0101314
0.010738
0.0112653
0.0116804
0.0119171
0.0118957
0.0115632
0.0109303
0.0100745
0.00910671
0.00813013
0.00721843
0.00641649
0.00575117
0.00524127
0.0049038
0.00475688
0.00481832
0.00509847
0.00558986
0.0076068
0.00908813
0.0107997
0.0125728
0.0142369
0.0156611
0.0167695
0.0175273
0.0179138
0.0179041
0.0174722
0.0166144
0.0153773
0.0138679
0.0122364
0.0106362
0.00918488
0.00794793
0.00694692
0.00618188
0.00565331
0.005377
0.00538897
0.00573953
0.0064746
0.0076068
0.0105181
0.0134283
0.0168473
0.0204202
0.0237408
0.0264563
0.0283275
0.0292312
0.0291335
0.0280752
0.0261812
0.0236661
0.0208065
0.0178833
0.0151275
0.0126915
0.0106474
0.00900371
0.00773278
0.0068018
0.00619991
0.00595674
0.00614976
0.00689696
0.00832668
0.0105181
0.0143089
0.0195379
0.0259211
0.0327987
0.0392972
0.0445635
0.0479561
0.049126
0.0480161
0.0448505
0.0401243
0.0345338
0.0288114
0.0235352
0.0190273
0.0153752
0.0125188
0.0103369
0.00870559
0.00753574
0.00679882
0.0065455
0.00691768
0.0081484
0.0105287
0.0143089
0.0185997
0.0271978
0.0382861
0.0508348
0.0631763
0.0734428
0.0800638
0.0821026
0.0793864
0.0725104
0.0627409
0.0517376
0.0410914
0.0318921
0.0245713
0.0190481
0.0149943
0.012045
0.00990442
0.00838368
0.0074144
0.00706128
0.00754152
0.00924688
0.0127337
0.0185997
0.0225318
0.0353466
0.0530429
0.0744121
0.0967302
0.116357
0.129778
0.134599
0.130126
0.117506
0.099426
0.0793543
0.0604692
0.0447759
0.0328784
0.0243779
0.018467
0.0143575
0.0114603
0.00941378
0.00806514
0.00746381
0.00788575
0.00989259
0.0143877
0.0225318
0.0249071
0.0419819
0.0675036
0.100808
0.138339
0.173996
0.200783
0.213069
0.208422
0.188361
0.157822
0.123443
0.0912797
0.0650419
0.0457185
0.0324201
0.0235542
0.0176332
0.0135831
0.0107508
0.00882428
0.00777979
0.00789693
0.00985704
0.0149045
0.0249071
0.0246875
0.0447223
0.0774012
0.123921
0.181154
0.240757
0.290796
0.319645
0.320388
0.293535
0.246754
0.191678
0.139339
0.0966472
0.0655698
0.0446364
0.031084
0.0223307
0.0165265
0.0125438
0.00979688
0.00810159
0.00764926
0.00912333
0.0139686
0.0246875
0.0216444
0.0420473
0.0785878
0.135692
0.21298
0.301994
0.38606
0.444946
0.462857
0.435532
0.372174
0.290928
0.210654
0.144002
0.0952833
0.0626976
0.0419617
0.028909
0.0205125
0.014906
0.0110682
0.00854311
0.00732306
0.00793717
0.0117806
0.0216444
0.0166498
0.0344413
0.0696354
0.130243
0.220855
0.336795
0.460155
0.562344
0.614588
0.601549
0.529273
0.421659
0.307932
0.209981
0.136999
0.0878951
0.0568409
0.0376378
0.0256187
0.0178421
0.0126439
0.00916978
0.0071111
0.0067011
0.00902009
0.0166498
0.0112649
0.0243538
0.0532462
0.108227
0.199161
0.328581
0.483526
0.632554
0.734338
0.756618
0.69391
0.570329
0.425107
0.292513
0.19023
0.120134
0.0756176
0.0483524
0.0316633
0.0211968
0.0144195
0.00995131
0.00711183
0.00576392
0.00649979
0.0112649
0.00689957
0.0148209
0.034842
0.0771865
0.154683
0.277233
0.441821
0.623281
0.775648
0.850222
0.822144
0.705351
0.542865
0.381201
0.249797
0.156854
0.0969396
0.0602654
0.038157
0.024661
0.0162028
0.010775
0.00729229
0.00525569
0.00475255
0.00689957
0.00418313
0.00788895
0.0193951
0.0469421
0.102887
0.200991
0.348177
0.532342
0.715065
0.841167
0.86635
0.784467
0.630541
0.457006
0.305146
0.192591
0.118043
0.0719639
0.0443586
0.0278373
0.0177733
0.0115028
0.00754118
0.00508879
0.00384454
0.00418313
0.00291855
0.00399637
0.00922925
0.0241728
0.0583462
0.124848
0.235842
0.392128
0.57122
0.725851
0.802946
0.774943
0.657616
0.497596
0.342506
0.21982
0.135133
0.0816204
0.0494076
0.030322
0.0189352
0.0120202
0.0077465
0.00509005
0.00351404
0.00291855
0.00251363
0.00237868
0.00403205
0.0105097
0.0279935
0.0662397
0.137195
0.248871
0.394446
0.543883
0.650305
0.674452
0.610177
0.487317
0.349872
0.231143
0.144271
0.0873436
0.0524597
0.0317554
0.019535
0.0122477
0.00783207
0.0051188
0.00345205
0.00251363
0.00246248
0.00193627
0.00209015
0.00410769
0.0112817
0.0297633
0.0683547
0.13611
0.235549
0.353617
0.459067
0.514843
0.500621
0.426165
0.322728
0.222155
0.142578
0.0876073
0.0528117
0.0318443
0.0194553
0.0121318
0.00775384
0.00509722
0.00346306
0.00246248
0.00250934
0.00191815
0.00163597
0.00194304
0.00407885
0.0112392
0.028899
0.0639452
0.121662
0.199662
0.282453
0.344127
0.361918
0.331075
0.267078
0.19374
0.129436
0.0817482
0.0500685
0.0304046
0.0186212
0.0116407
0.00749022
0.00499213
0.00346258
0.00250934
0.00256639
0.00201123
0.00165572
0.00150897
0.0018683
0.00388865
0.010349
0.0255893
0.0541681
0.0978964
0.151598
0.201445
0.230241
0.227772
0.197332
0.152344
0.107152
0.0704127
0.0443629
0.0274546
0.017038
0.0107802
0.00704409
0.00479847
0.00342614
0.00256639
0.00261566
0.00212741
0.00179308
0.00157059
0.00149601
0.00184625
0.00358507
0.00887363
0.0207476
0.0416412
0.0710585
0.103449
0.129017
0.138696
0.129869
0.107574
0.0804446
0.0556263
0.0364967
0.0233101
0.014841
0.00961676
0.00645105
0.00453434
0.00335783
0.00261566
0.0026648
0.00225448
0.00196569
0.00175681
0.00161512
0.00158793
0.00190946
0.00330887
0.00728236
0.0156681
0.0293819
0.046971
0.0640871
0.0751013
0.0763375
0.068265
0.0547229
0.0402268
0.0278159
0.0185814
0.0123102
0.00828609
0.00578176
0.00423824
0.00327819
0.0026648
0.00273708
0.00240881
0.00217542
0.00200507
0.00188174
0.00180945
0.00183819
0.00215606
0.00327
0.00609196
0.0115371
0.0196683
0.029036
0.0369315
0.0407276
0.0394196
0.0340626
0.0268471
0.019789
0.0140192
0.00981589
0.0069729
0.00513269
0.00396441
0.00322082
0.00273708
0.00286139
0.00261881
0.00245249
0.00233834
0.00226472
0.0022312
0.00225277
0.00238099
0.00276072
0.00370955
0.00568929
0.00900547
0.0133726
0.0177666
0.0208276
0.0216069
0.0200793
0.0170288
0.0134931
0.0102612
0.00770216
0.00585521
0.00459693
0.00376547
0.00322077
0.00286139
0.00309395
0.0029511
0.00287321
0.002842
0.00284918
0.00289609
0.00299401
0.00316714
0.0034624
0.00397069
0.00483857
0.0062076
0.00805807
0.0100789
0.011729
0.0124995
0.0121919
0.0109984
0.00934507
0.00765424
0.00619504
0.00506629
0.00425409
0.00369716
0.00332864
0.00309395

VECTORS u double
-107.62 91.2774 0.0
-104.78 93.5109 0.0
-102.163 95.862 0.0
-99.7762 98.2378 0.0
-97.6397 100.512 0.0
-95.8468 102.604 0.0
-94.5886 104.444 0.0
-94.1672 105.934 0.0
-94.9996 106.915 0.0
-97.5936 107.18 0.0
-102.267 106.619 0.0
-108.511 105.42 0.0
-115.009 103.972 0.0
-120.609 102.532 0.0
-124.828 101.115 0.0
-127.629 99.6224 0.0
-129.122 97.9497 0.0
-129.431 96.0516 0.0
-128.663 93.9693 0.0
-126.933 91.8486 0.0
-124.396 89.9391 0.0
-121.271 88.5483 0.0
-117.82 87.9442 0.0
-114.292 88.2515 0.0
-110.871 89.417 0.0
-107.62 91.2774 0.0
-107.764 95.8723 0.0
-105.267 98.782 0.0
-103.054 101.529 0.0
-101.108 104.085 0.0
-99.4293 106.348 0.0
-98.099 108.266 0.0
-97.2889 109.803 0.0
-97.2436 110.905 0.0
-98.215 111.485 0.0
-100.365 111.427 0.0
-103.681 110.63 0.0
-107.925 109.088 0.0
-112.621 106.972 0.0
-117.159 104.58 0.0
-120.998 102.177 0.0
-123.822 99.8738 0.0
-125.524 97.6582 0.0
-126.128 95.4932 0.0
-125.712 93.4067 0.0
-124.387 91.5373 0.0
-122.306 90.128 0.0
-119.66 89.4608 0.0
-116.681 89.7473 0.0
-113.604 91.0307 0.0
-110.635 93.1601 0.0
-107.764 95.8723 0.0
-108.558 101.007 0.0
-106.435 104.483 0.0
-104.659 107.534 0.0
-103.177 110.125 0.0
-101.957 112.221 0.0
-101.06 113.828 0.0
-100.637 114.956 0.0
-100.9 115.592 0.0
-102.049 115.701 0.0
-104.177 115.231 0.0
-107.193 114.136 0.0
-110.817 112.409 0.0
-114.651 110.103 0.0
-118.282 107.359 0.0
-121.361 104.383 0.0
-123.657 101.383 0.0
-125.056 98.5164 0.0
-125.537 95.8901 0.0
-125.131 93.6136 0.0
-123.908 91.8557 0.0
-121.974 90.8563 0.0
-119.487 90.8706 0.0
-116.667 92.0558 0.0
-113.779 94.3571 0.0
-111.069 97.4788 0.0
-108.558 101.007 0.0
-109.766 106.237 0.0
-108.096 110.102 0.0
-106.803 113.28 0.0
-105.785 115.768 0.0
-104.996 117.615 0.0
-104.485 118.886 0.0
-104.388 119.628 0.0
-104.892 119.856 0.0
-106.166 119.56 0.0
-108.281 118.718 0.0
-111.143 117.309 0.0
-114.495 115.339 0.0
-117.971 112.843 0.0
-121.201 109.904 0.0
-123.879 106.655 0.0
-125.807 103.275 0.0
-126.891 99.9707 0.0
-127.112 96.9508 0.0
-126.499 94.4337 0.0
-125.106 92.6687 0.0
-123.013 91.9463 0.0
-120.367 92.546 0.0
-117.418 94.598 0.0
-114.507 97.9205 0.0
-111.946 102.002 0.0
-109.766 106.237 0.0
-111.232 111.006 0.0
-110.026 115.068 0.0
-109.202 118.225 0.0
-108.614 120.554 0.0
-108.21 122.175 0.0
-108.039 123.189 0.0
-108.232 123.659 0.0
-108.955 123.612 0.0
-110.352 123.046 0.0
-112.472 121.944 0.0
-115.223 120.293 0.0
-118.372 118.098 0.0
-121.596 115.392 0.0
-124.559 112.245 0.0
-126.981 108.768 0.0
-128.673 105.124 0.0
-129.537 101.521 0.0
-129.548 98.2089 0.0
-128.724 95.468 0.0
-127.101 93.6257 0.0
-124.737 93.0616 0.0
-121.779 94.142 0.0
-118.546 97.0059 0.0
-115.507 101.307 0.0
-113.066 106.243 0.0
-111.232 111.006 0.0
-112.777 114.901 0.0
-112 119.031 0.0
-111.596 122.116 0.0
-111.388 124.321 0.0
-111.325 125.809 0.0
-111.461 126.692 0.0
-111.925 127.031 0.0
-112.871 126.851 0.0
-114.418 126.151 0.0
-116.595 124.914 0.0
-119.301 123.122 0.0
-122.314 120.772 0.0
-125.336 117.886 0.0
-128.066 114.53 0.0
-130.251 110.819 0.0
-131.72 106.92 0.0
-132.382 103.051 0.0
-132.21 99.4744 0.0
-131.209 96.4981 0.0
-129.383 94.4996 0.0
-126.749 93.9575 0.0
-123.435 95.3751 0.0
-119.841 98.9469 0.0
-116.615 104.133 0.0
-114.276 109.781 0.0
-112.777 114.901 0.0
-114.26 117.734 0.0
-113.855 121.897 0.0
-113.818 124.939 0.0
-113.948 127.104 0.0
-114.193 128.573 0.0
-114.613 129.448 0.0
-115.335 129.782 0.0
-116.504 129.591 0.0
-118.227 128.872 0.0
-120.514 127.607 0.0
-123.251 125.772 0.0
-126.211 123.35 0.0
-129.103 120.346 0.0
-131.644 116.816 0.0
-133.606 112.878 0.0
-134.845 108.719 0.0
-135.291 104.575 0.0
-134.934 100.72 0.0
-133.777 97.4647 0.0
-131.795 95.2054 0.0
-128.937 94.5058 0.0
-125.269 96.0476 0.0
-121.257 100.156 0.0
-117.768 106.109 0.0
-115.474 112.354 0.0
-114.26 117.734 0.0
-115.593 119.474 0.0
-115.495 123.7 0.0
-115.782 126.764 0.0
-116.223 128.975 0.0
-116.759 130.523 0.0
-117.448 131.497 0.0
-118.415 131.93 0.0
-119.8 131.826 0.0
-121.704 131.178 0.0
-124.13 129.968 0.0
-126.954 128.171 0.0
-129.936 125.758 0.0
-132.78 122.713 0.0
-135.199 119.069 0.0
-136.978 114.939 0.0
-137.996 110.527 0.0
-138.22 106.099 0.0
-137.674 101.943 0.0
-136.38 98.3588 0.0
-134.296 95.7268 0.0
-131.294 94.6573 0.0
-127.323 96.0298 0.0
-122.842 100.427 0.0
-118.968 107.031 0.0
-116.606 113.838 0.0
-115.593 119.474 0.0
-116.727 120.136 0.0
-116.869 124.495 0.0
-117.443 127.645 0.0
-118.177 129.968 0.0
-118.998 131.667 0.0
-119.952 132.816 0.0
-121.156 133.428 0.0
-122.747 133.49 0.0
-124.822 132.985 0.0
-127.387 131.896 0.0
-130.315 130.199 0.0
-133.364 127.86 0.0
-136.222 124.847 0.0
-138.589 121.165 0.0
-140.244 116.905 0.0
-141.078 112.276 0.0
-141.094 107.572 0.0
-140.365 103.104 0.0
-138.956 99.1583 0.0
-136.833 96.0684 0.0
-133.806 94.4239 0.0
-129.654 95.2678 0.0
-124.695 99.5985 0.0
-120.267 106.735 0.0
-117.656 114.162 0.0
-116.727 120.136 0.0
-117.645 119.732 0.0
-117.947 124.324 0.0
-118.771 127.612 0.0
-119.785 130.082 0.0
-120.887 131.965 0.0
-122.109 133.332 0.0
-123.55 134.176 0.0
-125.338 134.463 0.0
-127.57 134.161 0.0
-130.256 133.245 0.0
-133.277 131.693 0.0
-136.394 129.475 0.0
-139.292 126.551 0.0
-141.655 122.903 0.0
-143.244 118.591 0.0
-143.948 113.808 0.0
-143.794 108.866 0.0
-142.903 104.101 0.0
-141.397 99.7956 0.0
-139.286 96.2209 0.0
-136.367 93.8682 0.0
-132.249 93.8186 0.0
-126.924 97.5819 0.0
-121.772 105.053 0.0
-118.652 113.247 0.0
-117.645 119.732 0.0
-118.361 118.236 0.0
-118.717 123.21 0.0
-119.742 126.685 0.0
-121.013 129.311 0.0
-122.393 131.379 0.0
-123.884 132.972 0.0
-125.568 134.068 0.0
-127.553 134.613 0.0
-129.931 134.554 0.0
-132.717 133.852 0.0
-135.805 132.48 0.0
-138.967 130.414 0.0
-141.894 127.616 0.0
-144.266 124.056 0.0
-145.828 119.767 0.0
-146.456 114.913 0.0
-146.182 109.799 0.0
-145.162 104.784 0.0
-143.573 100.156 0.0
-141.49 96.1382 0.0
-138.765 93.0733 0.0
-134.937 91.8846 0.0
-129.559 94.4484 0.0
-123.636 101.809 0.0
-119.679 110.946 0.0
-118.361 118.236 0.0
-118.928 115.556 0.0
-119.186 121.17 0.0
-120.344 124.909 0.0
-121.837 127.688 0.0
-123.474 129.914 0.0
-125.232 131.704 0.0
-127.161 133.039 0.0
-129.35 133.847 0.0
-131.874 134.05 0.0
-134.749 133.589 0.0
-137.879 132.426 0.0
-141.057 130.534 0.0
-143.987 127.884 0.0
-146.356 124.449 0.0
-147.906 120.244 0.0
-148.496 115.401 0.0
-148.152 110.202 0.0
-147.041 105.008 0.0
-145.375 100.126 0.0
-143.298 95.7529 0.0
-140.759 92.0986 0.0
-137.373 89.7787 0.0
-132.407 90.5806 0.0
-125.996 96.9331 0.0
-120.887 107.006 0.0
-118.928 115.556 0.0
-119.447 111.47 0.0
-119.386 118.194 0.0
-120.584 122.357 0.0
-122.244 125.302 0.0
-124.105 127.648 0.0
-126.109 129.587 0.0
-128.279 131.118 0.0
-130.676 132.164 0.0
-133.354 132.625 0.0
-136.319 132.416 0.0
-139.485 131.481 0.0
-142.659 129.786 0.0
-145.57 127.306 0.0
-147.92 124.023 0.0
-149.457 119.95 0.0
-150.035 115.192 0.0
-149.662 109.998 0.0
-148.493 104.713 0.0
-146.758 99.6591 0.0
-144.644 95.0368 0.0
-142.198 90.9751 0.0
-139.201 87.787 0.0
-134.972 86.7059 0.0
-128.777 90.8015 0.0
-122.485 101.105 0.0
-119.447 111.47 0.0
-120.072 105.534 0.0
-119.367 114.173 0.0
-120.484 119.111 0.0
-122.247 122.302 0.0
-124.28 124.743 0.0
-126.492 126.772 0.0
-128.882 128.439 0.0
-131.481 129.674 0.0
-134.32 130.366 0.0
-137.388 130.406 0.0
-140.597 129.714 0.0
-143.77 128.238 0.0
-146.656 125.955 0.0
-148.981 122.855 0.0
-150.507 118.956 0.0
-151.088 114.348 0.0
-150.714 109.245 0.0
-149.519 103.965 0.0
-147.725 98.8315 0.0
-145.542 94.0624 0.0
-143.079 89.7641 0.0
-140.271 86.0627 0.0
-136.702 83.5568 0.0
-131.427 84.6285 0.0
-124.601 93.1926 0.0
-120.072 105.534 0.0
-120.97 97.1376 0.0
-119.181 108.719 0.0
-120.066 115.178 0.0
-121.871 118.851 0.0
-124.024 121.416 0.0
-126.393 123.492 0.0
-128.962 125.229 0.0
-131.741 126.592 0.0
-134.738 127.47 0.0
-137.919 127.739 0.0
-141.191 127.293 0.0
-144.38 126.062 0.0
-147.254 124.009 0.0
-149.562 121.131 0.0
-151.085 117.45 0.0
-151.683 113.053 0.0
-151.332 108.121 0.0
-150.139 102.941 0.0
-148.303 97.8249 0.0
-146.038 93.0079 0.0
-143.484 88.6075 0.0
-140.667 84.6805 0.0
-137.409 81.4317 0.0
-133.099 80.02 0.0
-126.89 84.4965 0.0
-120.97 97.1376 0.0
-122.065 86.6248 0.0
-118.82 100.935 0.0
-119.292 110.274 0.0
-121.125 115.025 0.0
-123.37 117.875 0.0
-125.849 120.003 0.0
-128.547 121.763 0.0
-131.468 123.19 0.0
-134.601 124.198 0.0
-137.896 124.661 0.0
-141.245 124.454 0.0
-144.473 123.484 0.0
-147.359 121.699 0.0
-149.671 119.087 0.0
-151.209 115.677 0.0
-151.841 111.548 0.0
-151.536 106.863 0.0
-150.37 101.873 0.0