# vtk DataFile Version 2.0
Particulate Flow Equations Solution
ASCII
DATASET STRUCTURED_GRID
DIMENSIONS 26 26 1
POINTS 676 double
-10 -10 0
-9.23077 -10 0
-8.46154 -10 0
-7.69231 -10 0
-6.92308 -10 0
-6.15385 -10 0
-5.38462 -10 0
-4.61538 -10 0
-3.84615 -10 0
-3.07692 -10 0
-2.30769 -10 0
-1.53846 -10 0
-0.769231 -10 0
5.55112e-016 -10 0
0.769231 -10 0
1.53846 -10 0
2.30769 -10 0
3.07692 -10 0
3.84615 -10 0
4.61538 -10 0
5.38462 -10 0
6.15385 -10 0
6.92308 -10 0
7.69231 -10 0
8.46154 -10 0
10 -10 0
-10 -9.23077 0
-9.23077 -9.23077 0
-8.46154 -9.23077 0
-7.69231 -9.23077 0
-6.92308 -9.23077 0
-6.15385 -9.23077 0
-5.38462 -9.23077 0
-4.61538 -9.23077 0
-3.84615 -9.23077 0
-3.07692 -9.23077 0
-2.30769 -9.23077 0
-1.53846 -9.23077 0
-0.769231 -9.23077 0
5.55112e-016 -9.23077 0
0.769231 -9.23077 0
1.53846 -9.23077 0
2.30769 -9.23077 0
3.07692 -9.23077 0
3.84615 -9.23077 0
4.61538 -9.23077 0
5.38462 -9.23077 0
6.15385 -9.23077 0
6.92308 -9.23077 0
7.69231 -9.23077 0
8.46154 -9.23077 0
10 -9.23077 0
-10 -8.46154 0
-9.23077 -8.46154 0
-8.46154 -8.46154 0
-7.69231 -8.46154 0
-6.92308 -8.46154 0
-6.15385 -8.46154 0
-5.38462 -8.46154 0
-4.61538 -8.46154 0
-3.84615 -8.46154 0
-3.07692 -8.46154 0
-2.30769 -8.46154 0
-1.53846 -8.46154 0
-0.769231 -8.46154 0
5.55112e-016 -8.46154 0
0.769231 -8.46154 0
1.53846 -8.46154 0
2.30769 -8.46154 0
3.07692 -8.46154 0
3.84615 -8.46154 0
4.61538 -8.46154 0
5.38462 -8.46154 0
6.15385 -8.46154 0
6.92308 -8.46154 0
7.69231 -8.46154 0
8.46154 -8.46154 0
10 -8.46154 0
-10 -7.69231 0
-9.23077 -7.69231 0
-8.46154 -7.69231 0
-7.69231 -7.69231 0
-6.92308 -7.69231 0
-6.15385 -7.69231 0
-5.38462 -7.69231 0
-4.61538 -7.69231 0
-3.84615 -7.69231 0
-3.07692 -7.69231 0
-2.30769 -7.69231 0
-1.53846 -7.69231 0
-0.769231 -7.69231 0
5.55112e-016 -7.69231 0
0.769231 -7.69231 0
1.53846 -7.69231 0
2.30769 -7.69231 0
3.07692 -7.69231 0
3.84615 -7.69231 0
4.61538 -7.69231 0
5.38462 -7.69231 0
6.15385 -7.69231 0
6.92308 -7.69231 0
7.69231 -7.69231 0
8.46154 -7.69231 0
10 -7.69231 0
-10 -6.92308 0
-9.23077 -6.92308 0
-8.46154 -6.92308 0
-7.69231 -6.92308 0
-6.92308 -6.92308 0
-6.15385 -6.92308 0
-5.38462 -6.92308 0
-4.61538 -6.92308 0
-3.84615 -6.92308 0
-3.07692 -6.92308 0
-2.30769 -6.92308 0
-1.53846 -6.92308 0
-0.769231 -6.92308 0
5.55112e-016 -6.92308 0
0.769231 -6.92308 0
1.53846 -6.92308 0
2.30769 -6.92308 0
3.07692 -6.92308 0
3.84615 -6.92308 0
4.61538 -6.92308 0
5.38462 -6.92308 0
6.15385 -6.92308 0
6.92308 -6.92308 0
7.69231 -6.92308 0
8.46154 -6.92308 0
10 -6.92308 0
-10 -6.15385 0
-9.23077 -6.15385 0
-8.46154 -6.15385 0
-7.69231 -6.15385 0
-6.92308 -6.15385 0
-6.15385 -6.15385 0
-5.38462 -6.15385 0
-4.61538 -6.15385 0
-3.84615 -6.15385 0
-3.07692 -6.15385 0
-2.30769 -6.15385 0
-1.53846 -6.15385 0
-0.769231 -6.15385 0
5.55112e-016 -6.15385 0
0.769231 -6.15385 0
1.53846 -6.15385 0
2.30769 -6.15385 0
3.07692 -6.15385 0
3.84615 -6.15385 0
4.61538 -6.15385 0
5.38462 -6.15385 0
6.15385 -6.15385 0
6.92308 -6.15385 0
7.69231 -6.15385 0
8.46154 -6.15385 0
10 -6.15385 0
-10 -5.38462 0
-9.23077 -5.38462 0
-8.46154 -5.38462 0
-7.69231 -5.38462 0
-6.92308 -5.38462 0
-6.15385 -5.38462 0
-5.38462 -5.38462 0
-4.61538 -5.38462 0
-3.84615 -5.38462 0
-3.07692 -5.38462 0
-2.30769 -5.38462 0
-1.53846 -5.38462 0
-0.769231 -5.38462 0
5.55112e-016 -5.38462 0
0.769231 -5.38462 0
1.53846 -5.38462 0
2.30769 -5.38462 0
3.07692 -5.38462 0
3.84615 -5.38462 0
4.61538 -5.38462 0
5.38462 -5.38462 0
6.15385 -5.38462 0
6.92308 -5.38462 0
7.69231 -5.38462 0
8.46154 -5.38462 0
10 -5.38462 0
-10 -4.61538 0
-9.23077 -4.61538 0
-8.46154 -4.61538 0
-7.69231 -4.61538 0
-6.92308 -4.61538 0
-6.15385 -4.61538 0
-5.38462 -4.61538 0
-4.61538 -4.61538 0
-3.84615 -4.61538 0
-3.07692 -4.61538 0
-2.30769 -4.61538 0
-1.53846 -4.61538 0
-0.769231 -4.61538 0
5.55112e-016 -4.61538 0
0.769231 -4.61538 0
1.53846 -4.61538 0
2.30769 -4.61538 0
3.07692 -4.61538 0
3.84615 -4.61538 0
4.61538 -4.61538 0
5.38462 -4.61538 0
6.15385 -4.61538 0
6.92308 -4.61538 0
7.69231 -4.61538 0
8.46154 -4.61538 0
10 -4.61538 0
-10 -3.84615 0
-9.23077 -3.84615 0
-8.46154 -3.84615 0
-7.69231 -3.84615 0
-6.92308 -3.84615 0
-6.15385 -3.84615 0
-5.38462 -3.84615 0
-4.61538 -3.84615 0
-3.84615 -3.84615 0
-3.07692 -3.84615 0
-2.30769 -3.84615 0
-1.53846 -3.84615 0
-0.769231 -3.84615 0
5.55112e-016 -3.84615 0
0.769231 -3.84615 0
1.53846 -3.84615 0
2.30769 -3.84615 0
3.07692 -3.84615 0
3.84615 -3.84615 0
4.61538 -3.84615 0
5.38462 -3.84615 0
6.15385 -3.84615 0
6.92308 -3.84615 0
7.69231 -3.84615 0
8.46154 -3.84615 0
10 -3.84615 0
-10 -3.07692 0
-9.23077 -3.07692 0
-8.46154 -3.07692 0
-7.69231 -3.07692 0
-6.92308 -3.07692 0
-6.15385 -3.07692 0
-5.38462 -3.07692 0
-4.61538 -3.07692 0
-3.84615 -3.07692 0
-3.07692 -3.07692 0
-2.30769 -3.07692 0
-1.53846 -3.07692 0
-0.769231 -3.07692 0
5.55112e-016 -3.07692 0
0.769231 -3.07692 0
1.53846 -3.07692 0
2.30769 -3.07692 0
3.07692 -3.07692 0
3.84615 -3.07692 0
4.61538 -3.07692 0
5.38462 -3.07692 0
6.15385 -3.07692 0
6.92308 -3.07692 0
7.69231 -3.07692 0
8.46154 -3.07692 0
10 -3.07692 0
-10 -2.30769 0
-9.23077 -2.30769 0
-8.46154 -2.30769 0
-7.69231 -2.30769 0
-6.92308 -2.30769 0
-6.15385 -2.30769 0
-5.38462 -2.30769 0
-4.61538 -2.30769 0
-3.84615 -2.30769 0
-3.07692 -2.30769 0
-2.30769 -2.30769 0
-1.53846 -2.30769 0
-0.769231 -2.30769 0
5.55112e-016 -2.30769 0
0.769231 -2.30769 0
1.53846 -2.30769 0
2.30769 -2.30769 0
3.07692 -2.30769 0
3.84615 -2.30769 0
4.61538 -2.30769 0
5.38462 -2.30769 0
6.15385 -2.30769 0
6.92308 -2.30769 0
7.69231 -2.30769 0
8.46154 -2.30769 0
10 -2.30769 0
-10 -1.53846 0
-9.23077 -1.53846 0
-8.46154 -1.53846 0
-7.69231 -1.53846 0
-6.92308 -1.53846 0
-6.15385 -1.53846 0
-5.38462 -1.53846 0
-4.61538 -1.53846 0
-3.84615 -1.53846 0
-3.07692 -1.53846 0
-2.30769 -1.53846 0
-1.53846 -1.53846 0
-0.769231 -1.53846 0
5.55112e-016 -1.53846 0
0.769231 -1.53846 0
1.53846 -1.53846 0
2.30769 -1.53846 0
3.07692 -1.53846 0
3.84615 -1.53846 0
4.61538 -1.53846 0
5.38462 -1.53846 0
6.15385 -1.53846 0
6.92308 -1.53846 0
7.69231 -1.53846 0
8.46154 -1.53846 0
10 -1.53846 0
-10 -0.769231 0
-9.23077 -0.769231 0
-8.46154 -0.769231 0
-7.69231 -0.769231 0
-6.92308 -0.769231 0
-6.15385 -0.769231 0
-5.38462 -0.769231 0
-4.61538 -0.769231 0
-3.84615 -0.769231 0
-3.07692 -0.769231 0
-2.30769 -0.769231 0
-1.53846 -0.769231 0
-0.769231 -0.769231 0
5.55112e-016 -0.769231 0
0.769231 -0.769231 0
1.53846 -0.769231 0
2.30769 -0.769231 0
3.07692 -0.769231 0
3.84615 -0.769231 0
4.61538 -0.769231 0
5.38462 -0.769231 0
6.15385 -0.769231 0
6.92308 -0.769231 0
7.69231 -0.769231 0
8.46154 -0.769231 0
10 -0.769231 0
-10 5.55112e-016 0
-9.23077 5.55112e-016 0
-8.46154 5.55112e-016 0
-7.69231 5.55112e-016 0
-6.92308 5.55112e-016 0
-6.15385 5.55112e-016 0
-5.38462 5.55112e-016 0
-4.61538 5.55112e-016 0
-3.84615 5.55112e-016 0
-3.07692 5.55112e-016 0
-2.30769 5.55112e-016 0
-1.53846 5.55112e-016 0
-0.769231 5.55112e-016 0
5.55112e-016 5.55112e-016 0
0.769231 5.55112e-016 0
1.53846 5.55112e-016 0
2.30769 5.55112e-016 0
3.07692 5.55112e-016 0
3.84615 5.55112e-016 0
4.61538 5.55112e-016 0
5.38462 5.55112e-016 0
6.15385 5.55112e-016 0
6.92308 5.55112e-016 0
7.69231 5.55112e-016 0
8.46154 5.55112e-016 0
10 5.55112e-016 0
-10 0.769231 0
-9.23077 0.769231 0
-8.46154 0.769231 0
-7.69231 0.769231 0
-6.92308 0.769231 0
-6.15385 0.769231 0
-5.38462 0.769231 0
-4.61538 0.769231 0
-3.84615 0.769231 0
-3.07692 0.769231 0
-2.30769 0.769231 0
-1.53846 0.769231 0
-0.769231 0.769231 0
5.55112e-016 0.769231 0
0.769231 0.769231 0
1.53846 0.769231 0
2.30769 0.769231 0
3.07692 0.769231 0
3.84615 0.769231 0
4.61538 0.769231 0
5.38462 0.769231 0
6.15385 0.769231 0
6.92308 0.769231 0
7.69231 0.769231 0
8.46154 0.769231 0
10 0.769231 0
-10 1.53846 0
-9.23077 1.53846 0
-8.46154 1.53846 0
-7.69231 1.53846 0
-6.92308 1.53846 0
-6.15385 1.53846 0
-5.38462 1.53846 0
-4.61538 1.53846 0
-3.84615 1.53846 0
-3.07692 1.53846 0
-2.30769 1.53846 0
-1.53846 1.53846 0
-0.769231 1.53846 0
5.55112e-016 1.53846 0
0.769231 1.53846 0
1.53846 1.53846 0
2.30769 1.53846 0
3.07692 1.53846 0
3.84615 1.53846 0
4.61538 1.53846 0
5.38462 1.53846 0
6.15385 1.53846 0
6.92308 1.53846 0
7.69231 1.53846 0
8.46154 1.53846 0
10 1.53846 0
-10 2.30769 0
-9.23077 2.30769 0
-8.46154 2.30769 0
-7.69231 2.30769 0
-6.92308 2.30769 0
-6.15385 2.30769 0
-5.38462 2.30769 0
-4.61538 2.30769 0
-3.84615 2.30769 0
-3.07692 2.30769 0
-2.30769 2.30769 0
-1.53846 2.30769 0
-0.769231 2.30769 0
5.55112e-016 2.30769 0
0.769231 2.30769 0
1.53846 2.30769 0
2.30769 2.30769 0
3.07692 2.30769 0
3.84615 2.30769 0
4.61538 2.30769 0
5.38462 2.30769 0
6.15385 2.30769 0
6.92308 2.30769 0
7.69231 2.30769 0
8.46154 2.30769 0
10 2.30769 0
-10 3.07692 0
-9.23077 3.07692 0
-8.46154 3.07692 0
-7.69231 3.07692 0
-6.92308 3.07692 0
-6.15385 3.07692 0
-5.38462 3.07692 0
-4.61538 3.07692 0
-3.84615 3.07692 0
-3.07692 3.07692 0
-2.30769 3.07692 0
-1.53846 3.07692 0
-0.769231 3.07692 0
5.55112e-016 3.07692 0
0.769231 3.07692 0
1.53846 3.07692 0
2.30769 3.07692 0
3.07692 3.07692 0
3.84615 3.07692 0
4.61538 3.07692 0
5.38462 3.07692 0
6.15385 3.07692 0
6.92308 3.07692 0
7.69231 3.07692 0
8.46154 3.07692 0
10 3.07692 0
-10 3.84615 0
-9.23077 3.84615 0
-8.46154 3.84615 0
-7.69231 3.84615 0
-6.92308 3.84615 0
-6.15385 3.84615 0
-5.38462 3.84615 0
-4.61538 3.84615 0
-3.84615 3.84615 0
-3.07692 3.84615 0
-2.30769 3.84615 0
-1.53846 3.84615 0
-0.769231 3.84615 0
5.55112e-016 3.84615 0
0.769231 3.84615 0
1.53846 3.84615 0
2.30769 3.84615 0
3.07692 3.84615 0
3.84615 3.84615 0
4.61538 3.84615 0
5.38462 3.84615 0
6.15385 3.84615 0
6.92308 3.84615 0
7.69231 3.84615 0
8.46154 3.84615 0
10 3.84615 0
-10 4.61538 0
-9.23077 4.61538 0
-8.46154 4.61538 0
-7.69231 4.61538 0
-6.92308 4.61538 0
-6.15385 4.61538 0
-5.38462 4.61538 0
-4.61538 4.61538 0
-3.84615 4.61538 0
-3.07692 4.61538 0
-2.30769 4.61538 0
-1.53846 4.61538 0
-0.769231 4.61538 0
5.55112e-016 4.61538 0
0.769231 4.61538 0
1.53846 4.61538 0
2.30769 4.61538 0
3.07692 4.61538 0
3.84615 4.61538 0
4.61538 4.61538 0
5.38462 4.61538 0
6.15385 4.61538 0
6.92308 4.61538 0
7.69231 4.61538 0
8.46154 4.61538 0
10 4.61538 0
-10 5.38462 0
-9.23077 5.38462 0
-8.46154 5.38462 0
-7.69231 5.38462 0
-6.92308 5.38462 0
-6.15385 5.38462 0
-5.38462 5.38462 0
-4.61538 5.38462 0
-3.84615 5.38462 0
-3.07692 5.38462 0
-2.30769 5.38462 0
-1.53846 5.38462 0
-0.769231 5.38462 0
5.55112e-016 5.38462 0
0.769231 5.38462 0
1.53846 5.38462 0
2.30769 5.38462 0
3.07692 5.38462 0
3.84615 5.38462 0
4.61538 5.38462 0
5.38462 5.38462 0
6.15385 5.38462 0
6.92308 5.38462 0
7.69231 5.38462 0
8.46154 5.38462 0
10 5.38462 0
-10 6.15385 0
-9.23077 6.15385 0
-8.46154 6.15385 0
-7.69231 6.15385 0
-6.92308 6.15385 0
-6.15385 6.15385 0
-5.38462 6.15385 0
-4.61538 6.15385 0
-3.84615 6.15385 0
-3.07692 6.15385 0
-2.30769 6.15385 0
-1.53846 6.15385 0
-0.769231 6.15385 0
5.55112e-016 6.15385 0
0.769231 6.15385 0
1.53846 6.15385 0
2.30769 6.15385 0
3.07692 6.15385 0
3.84615 6.15385 0
4.61538 6.15385 0
5.38462 6.15385 0
6.15385 6.15385 0
6.92308 6.15385 0
7.69231 6.15385 0
8.46154 6.15385 0
10 6.15385 0
-10 6.92308 0
-9.23077 6.92308 0
-8.46154 6.92308 0
-7.69231 6.92308 0
-6.92308 6.92308 0
-6.15385 6.92308 0
-5.38462 6.92308 0
-4.61538 6.92308 0
-3.84615 6.92308 0
-3.07692 6.92308 0
-2.30769 6.92308 0
-1.53846 6.92308 0
-0.769231 6.92308 0
5.55112e-016 6.92308 0
0.769231 6.92308 0
1.53846 6.92308 0
2.30769 6.92308 0
3.07692 6.92308 0
3.84615 6.92308 0
4.61538 6.92308 0
5.38462 6.92308 0
6.15385 6.92308 0
6.92308 6.92308 0
7.69231 6.92308 0
8.46154 6.92308 0
10 6.92308 0
-10 7.69231 0
-9.23077 7.69231 0
-8.46154 7.69231 0
-7.69231 7.69231 0
-6.92308 7.69231 0
-6.15385 7.69231 0
-5.38462 7.69231 0
-4.61538 7.69231 0
-3.84615 7.69231 0
-3.07692 7.69231 0
-2.30769 7.69231 0
-1.53846 7.69231 0
-0.769231 7.69231 0
5.55112e-016 7.69231 0
0.769231 7.69231 0
1.53846 7.69231 0
2.30769 7.69231 0
3.07692 7.69231 0
3.84615 7.69231 0
4.61538 7.69231 0
5.38462 7.69231 0
6.15385 7.69231 0
6.92308 7.69231 0
7.69231 7.69231 0
8.46154 7.69231 0
10 7.69231 0
-10 8.46154 0
-9.23077 8.46154 0
-8.46154 8.46154 0
-7.69231 8.46154 0
-6.92308 8.46154 0
-6.15385 8.46154 0
-5.38462 8.46154 0
-4.61538 8.46154 0
-3.84615 8.46154 0
-3.07692 8.46154 0
-2.30769 8.46154 0
-1.53846 8.46154 0
-0.769231 8.46154 0
5.55112e-016 8.46154 0
0.769231 8.46154 0
1.53846 8.46154 0
2.30769 8.46154 0
3.07692 8.46154 0
3.84615 8.46154 0
4.61538 8.46154 0
5.38462 8.46154 0
6.15385 8.46154 0
6.92308 8.46154 0
7.69231 8.46154 0
8.46154 8.46154 0
10 8.46154 0
-10 10 0
-9.23077 10 0
-8.46154 10 0
-7.69231 10 0
-6.92308 10 0
-6.15385 10 0
-5.38462 10 0
-4.61538 10 0
-3.84615 10 0
-3.07692 10 0
-2.30769 10 0
-1.53846 10 0
-0.769231 10 0
5.55112e-016 10 0
0.769231 10 0
1.53846 10 0
2.30769 10 0
3.07692 10 0
3.84615 10 0
4.61538 10 0
5.38462 10 0
6.15385 10 0
6.92308 10 0
7.69231 10 0
8.46154 10 0
10 10 0

POINT_DATA 676
SCALARS h double 1
LOOkUP_TABLE default
0.0193207
0.0365367
0.0618009
0.0927108
0.123211
0.145366
0.152972
0.144672
0.124259
0.0982079
0.0725177
0.0508629
0.0344684
0.0229506
0.0152554
0.0102717
0.00709794
0.00509117
0.00382693
0.00304219
0.00259872
0.00249469
0.00297399
0.00478461
0.00947259
0.0193207
0.00950802
0.0178023
0.0313367
0.049872
0.0707862
0.0893489
0.100521
0.101391
0.0925224
0.0772995
0.0599813
0.0439312
0.0308986
0.0212419
0.0145259
0.0100477
0.00713876
0.00527765
0.00409821
0.0033607
0.00292092
0.00271712
0.00279653
0.00341764
0.00524388
0.00950802
0.006187
0.00994008
0.0165714
0.0265585
0.0391515
0.0520832
0.0621625
0.0666641
0.0646442
0.0572521
0.0469174
0.0361289
0.0265971
0.019067
0.0135666
0.00976275
0.00722918
0.005585
0.00453969
0.00389154
0.00351118
0.00332741
0.00332739
0.00358788
0.00435852
0.006187
0.00602162
0.00781066
0.0109805
0.0159975
0.0228334
0.0306369
0.0377722
0.0424021
0.0433329
0.0405556
0.0351261
0.0285513
0.0221479
0.016711
0.012517
0.00950008
0.00744079
0.00609313
0.00524588
0.0047409
0.004471
0.00437205
0.00441785
0.00462608
0.00508662
0.00602162
0.00758529
0.00861681
0.0102377
0.0127156
0.0161564
0.0203177
0.0245093
0.0277537
0.029186
0.0284561
0.0258629
0.0221535
0.0181626
0.0145257
0.011576
0.00938903
0.00788625
0.00692704
0.00636737
0.0060874
0.00600032
0.00605178
0.0062163
0.00649506
0.00692159
0.00758529
0.0105807
0.0113057
0.0122101
0.0134069
0.0149592
0.0168229
0.0187633
0.0203657
0.0211754
0.0209033
0.0195682
0.0174806
0.0150929
0.0128234
0.0109476
0.00957916
0.00870847
0.00825668
0.00812002
0.00819885
0.00841401
0.0087137
0.00907327
0.00949015
0.00997945
0.0105807
0.0153153
0.0158142
0.0162295
0.016601
0.0169481
0.0172894
0.0175938
0.0177523
0.0176049
0.0170196
0.0159773
0.0146029
0.0131238
0.0117859
0.0107786
0.0101988
0.0100534
0.0102818
0.0107839
0.0114473
0.0121721
0.0128877
0.0135584
0.0141772
0.0147542
0.0153153
0.0225342
0.0226694
0.0224699
0.0219779
0.0212197
0.0202675
0.0192041
0.0180856
0.0169252
0.015714
0.0144649
0.0132465
0.0121839
0.0114275
0.0111085
0.0113046
0.0120211
0.0131888
0.0146733
0.0163016
0.0179008
0.0193347
0.0205243
0.0214439
0.0221022
0.0225342
0.0334573
0.0329063
0.0316892
0.0299336
0.0277459
0.0252962
0.0227732
0.0203383
0.0180965
0.0161017
0.0143884
0.0130071
0.0120444
0.0116173
0.0118484
0.0128315
0.0145945
0.0170646
0.0200505
0.0232607
0.0263639
0.0290672
0.0311737
0.032596
0.0333343
0.0334573
0.049911
0.0481564
0.0452248
0.0414461
0.0371133
0.0325759
0.0281625
0.0241214
0.0205964
0.0176441
0.015279
0.0135225
0.0124378
0.0121421
0.0127945
0.0145621
0.0175598
0.0217683
0.0269589
0.0326764
0.0383157
0.0432664
0.0470575
0.0494314
0.0503393
0.049911
0.07445
0.0707965
0.0651146
0.0581257
0.050479
0.0428353
0.0357326
0.0295109
0.0243091
0.0201232
0.0168886
0.0145566
0.0131481
0.012782
0.01368
0.0161398
0.0204594
0.0267949
0.0349838
0.0444292
0.054143
0.0629653
0.069863
0.0741606
0.0756255
0.07445
0.110279
0.104002
0.0942111
0.0823253
0.069634
0.057329
0.0462813
0.0369502
0.0294277
0.0235732
0.0191641
0.0160157
0.0140579
0.013381
0.0142602
0.017155
0.0226425
0.0312293
0.0430404
0.0575091
0.0732673
0.0883674
0.10078
0.108932
0.112054
0.110279
0.160634
0.151418
0.136062
0.117137
0.0970385
0.0778615
0.061034
0.0472077
0.0363918
0.0282171
0.0221995
0.0179254
0.0151574
0.0138926
0.0144075
0.0172967
0.0234582
0.0339153
0.0493938
0.0697417
0.0934824
0.117831
0.139299
0.154672
0.161904
0.160634
0.227177
0.216002
0.194182
0.16599
0.135619
0.106688
0.0815835
0.061324
0.0458318
0.0344095
0.0261821
0.0203869
0.0165167
0.0143833
0.0141695
0.0165072
0.0225479
0.0338838
0.0521198
0.0780539
0.110744
0.146986
0.181685
0.209178
0.224972
0.227177
0.307298
0.29768
0.270286
0.231454
0.188034
0.146082
0.10964
0.0804598
0.058467
0.0425596
0.0313295
0.0235208
0.0182333
0.0149843
0.0137461
0.0150364
0.0200744
0.0308711
0.0499629
0.0795398
0.120067
0.168956
0.220143
0.265224
0.295982
0.307298
0.391266
0.39016
0.361426
0.313036
0.255145
0.197368
0.146449
0.105554
0.0749053
0.0530109
0.0378115
0.0274077
0.0203721
0.0158158
0.0133879
0.013337
0.0167028
0.0255768
0.0431313
0.0729765
0.117647
0.176529
0.24419
0.310439
0.362864
0.391266
0.461718
0.478731
0.457078
0.404406
0.333835
0.259402
0.191826
0.136754
0.095322
0.0658669
0.0456575
0.0320356
0.0229228
0.016923
0.0132764
0.0118522
0.0133015
0.0194022
0.0333937
0.0597839
0.10314
0.165762
0.244867
0.330841
0.408444
0.461718
0.498177
0.542064
0.538662
0.491699
0.41508
0.326975
0.243047
0.172729
0.119073
0.0807914
0.0546643
0.037265
0.0257889
0.0182597
0.0134592
0.0108348
0.0105513
0.0137938
0.0232769
0.0435335
0.0803238
0.138712
0.219839
0.317498
0.41691
0.498177
0.486261
0.559706
0.584077
0.555296
0.484004
0.390167
0.294146
0.210149
0.144384
0.0968519
0.064334
0.0428179
0.0288032
0.0197162
0.0138696
0.0103042
0.0087196
0.00963821
0.0148898
0.0282157
0.0553425
0.102869
0.175552
0.272248
0.382363
0.486261
0.426258
0.522429
0.576944
0.576262
0.523403
0.435841
0.336347
0.243727
0.168305
0.112488
0.0738674
0.0482905
0.0317552
0.0211628
0.0143934
0.010132
0.00770409
0.00707837
0.00917405
0.0165045
0.0337337
0.0673957
0.124211
0.207624
0.313256
0.426258
0.334209
0.438388
0.515597
0.545116
0.520313
0.45162
0.360089
0.267112
0.187067
0.125649
0.0822242
0.0531829
0.034411
0.0224768
0.014925
0.0101592
0.00723702
0.00575309
0.00593687
0.00910215
0.0183637
0.0389905
0.0777142
0.140504
0.228581
0.334209
0.233997
0.329826
0.415191
0.467525
0.472426
0.430993
0.358244
0.274581
0.19686
0.134116
0.0882383
0.0569346
0.0365203
0.0235451
0.0153858
0.0102645
0.0070677
0.00517441
0.00440683
0.00522366
0.00927234
0.0200553
0.0429831
0.0842911
0.148408
0.233997
0.1463
0.222356
0.300768
0.362487
0.390134
0.376812
0.329218
0.263074
0.194907
0.135974
0.0907949
0.0589732
0.0378183
0.0242522
0.0157139
0.0103731
0.00703451
0.00497142
0.00381086
0.00355052
0.0048264
0.00949753
0.0211538
0.0448539
0.0857379
0.1463
0.081804
0.134471
0.196071
0.253873
0.292416
0.300797
0.278219
0.233686
0.180523
0.130187
0.0890828
0.0588038
0.0380463
0.0244767
0.0158514
0.01044
0.0070555
0.00494133
0.00365031
0.00298552
0.00306861
0.00464543
0.00962437
0.0213719
0.0441923
0.081804
0.0411906
0.073225
0.115289
0.160758
0.198804
0.218747
0.215396
0.191469
0.155449
0.116905
0.0827414
0.0560407
0.0369311
0.024055
0.015707
0.0104096
0.00707814
0.00498707
0.00368065
0.00289985
0.00256607
0.0028803
0.00462402
0.00958951
0.0206709
0.0411906
0.0193207
0.0365367
0.0618009
0.0927108
0.123211
0.145366
0.152972
0.144672
0.124259
0.0982079
0.0725177
0.0508629
0.0344684
0.0229506
0.0152554
0.0102717
0.00709794
0.00509117
0.00382693
0.00304219
0.00259872
0.00249469
0.00297399
0.00478461
0.00947259
0.0193207

VECTORS u double
-134.144 119.156 0.0
-138.493 120.667 0.0
-142.234 121.702 0.0
-145.607 122.412 0.0
-148.661 122.826 0.0
-151.354 122.929 0.0
-153.615 122.689 0.0
-155.371 122.074 0.0
-156.568 121.065 0.0
-157.175 119.665 0.0
-157.175 117.903 0.0
-156.559 115.836 0.0
-155.32 113.558 0.0
-153.447 111.198 0.0
-150.936 108.924 0.0
-147.803 106.927 0.0
-144.099 105.398 0.0
-139.934 104.494 0.0
-135.478 104.29 0.0
-130.947 104.769 0.0
-126.619 105.86 0.0
-123.102 107.591 0.0
-121.975 110.244 0.0
-124.717 113.707 0.0
-129.621 116.872 0.0
-134.144 119.156 0.0
-127.986 118.351 0.0
-133.457 119.59 0.0
-138.078 120.463 0.0
-142.028 121.111 0.0
-145.455 121.526 0.0
-148.41 121.681 0.0
-150.876 121.537 0.0
-152.81 121.058 0.0
-154.171 120.223 0.0
-154.93 119.029 0.0
-155.067 117.5 0.0
-154.566 115.693 0.0
-153.41 113.702 0.0
-151.581 111.668 0.0
-149.07 109.775 0.0
-145.899 108.241 0.0
-142.151 107.274 0.0
-137.985 107.019 0.0
-133.631 107.499 0.0
-129.341 108.607 0.0
-125.352 110.141 0.0
-121.924 111.872 0.0
-119.607 113.602 0.0
-119.647 115.246 0.0
-123.006 116.833 0.0
-127.986 118.351 0.0
-121.834 120.283 0.0
-127.165 120.227 0.0
-132.563 120.227 0.0
-137.356 120.357 0.0
-141.427 120.499 0.0
-144.834 120.539 0.0
-147.622 120.387 0.0
-149.801 119.979 0.0
-151.36 119.273 0.0
-152.287 118.255 0.0
-152.565 116.943 0.0
-152.177 115.391 0.0
-151.101 113.703 0.0
-149.312 112.035 0.0
-146.805 110.601 0.0
-143.624 109.642 0.0
-139.894 109.37 0.0
-135.841 109.882 0.0
-131.744 111.11 0.0
-127.871 112.846 0.0
-124.415 114.817 0.0
-121.508 116.764 0.0
-119.306 118.456 0.0
-118.185 119.666 0.0
-118.935 120.227 0.0
-121.834 120.283 0.0
-119.491 124.538 0.0
-122.715 123.558 0.0
-127.172 122.295 0.0
-132.069 121.241 0.0
-136.647 120.525 0.0
-140.579 120.032 0.0
-143.796 119.596 0.0
-146.304 119.076 0.0
-148.119 118.381 0.0
-149.247 117.462 0.0
-149.686 116.321 0.0
-149.421 115.007 0.0
-148.429 113.635 0.0
-146.689 112.388 0.0
-144.21 111.511 0.0
-141.074 111.261 0.0
-137.475 111.812 0.0
-133.701 113.165 0.0
-130.06 115.122 0.0
-126.784 117.375 0.0
-123.997 119.623 0.0
-121.743 121.641 0.0
-120.052 123.274 0.0
-118.998 124.392 0.0
-118.795 124.845 0.0
-119.491 124.538 0.0
-120.531 128.717 0.0
-122.324 127.782 0.0
-125.026 126.185 0.0
-128.616 124.274 0.0
-132.623 122.461 0.0
-136.504 120.978 0.0
-139.899 119.814 0.0
-142.643 118.836 0.0
-144.682 117.902 0.0
-146.004 116.912 0.0
-146.604 115.831 0.0
-146.464 114.699 0.0
-145.563 113.641 0.0
-143.887 112.867 0.0
-141.478 112.648 0.0
-138.479 113.222 0.0
-135.162 114.67 0.0
-131.858 116.837 0.0
-128.848 119.389 0.0
-126.287 121.964 0.0
-124.21 124.291 0.0
-122.597 126.214 0.0
-121.433 127.661 0.0
-120.726 128.593 0.0
-120.518 128.961 0.0
-120.531 128.717 0.0
-122.831 132.157 0.0
-124.227 131.352 0.0
-126.082 129.94 0.0
-128.508 128.006 0.0
-131.374 125.765 0.0
-134.415 123.513 0.0
-137.324 121.483 0.0
-139.85 119.752 0.0
-141.828 118.272 0.0
-143.171 116.954 0.0
-143.823 115.747 0.0
-143.742 114.682 0.0
-142.893 113.892 0.0
-141.273 113.613 0.0
-138.968 114.113 0.0
-136.2 115.555 0.0
-133.301 117.856 0.0
-130.601 120.685 0.0
-128.303 123.617 0.0
-126.461 126.306 0.0
-125.036 128.557 0.0
-123.977 130.296 0.0
-123.258 131.515 0.0
-122.881 132.224 0.0
-122.862 132.431 0.0
-122.831 132.157 0.0
-125.498 135.047 0.0
-126.845 134.264 0.0
-128.464 132.978 0.0
-130.427 131.211 0.0
-132.627 129.033 0.0
-134.906 126.592 0.0
-137.093 124.095 0.0
-139.029 121.733 0.0
-140.58 119.621 0.0
-141.636 117.794 0.0
-142.105 116.268 0.0
-141.908 115.11 0.0
-140.983 114.488 0.0
-139.339 114.657 0.0
-137.113 115.847 0.0
-134.6 118.083 0.0
-132.164 121.079 0.0
-130.08 124.355 0.0
-128.448 127.463 0.0
-127.232 130.127 0.0
-126.349 132.24 0.0
-125.736 133.792 0.0
-125.372 134.814 0.0
-125.268 135.34 0.0
-125.44 135.399 0.0
-125.498 135.047 0.0
-128.273 137.554 0.0
-129.648 136.762 0.0
-131.217 135.519 0.0
-133.038 133.844 0.0
-134.988 131.77 0.0
-136.911 129.367 0.0
-138.656 126.754 0.0
-140.109 124.089 0.0
-141.185 121.534 0.0
-141.815 119.23 0.0
-141.924 117.304 0.0
-141.426 115.921 0.0
-140.256 115.329 0.0
-138.441 115.821 0.0
-136.185 117.577 0.0
-133.85 120.448 0.0
-131.801 123.948 0.0
-130.232 127.494 0.0
-129.14 130.665 0.0
-128.423 133.266 0.0
-127.969 135.261 0.0
-127.714 136.682 0.0
-127.641 137.579 0.0
-127.768 137.994 0.0
-128.112 137.961 0.0
-128.273 137.554 0.0
-131.062 139.746 0.0
-132.482 138.966 0.0
-134.05 137.75 0.0
-135.822 136.117 0.0
-137.678 134.096 0.0
-139.457 131.731 0.0
-141.008 129.098 0.0
-142.211 126.307 0.0
-142.991 123.502 0.0
-143.292 120.85 0.0
-143.057 118.55 0.0
-142.209 116.868 0.0
-140.696 116.159 0.0
-138.582 116.799 0.0
-136.154 118.941 0.0
-133.855 122.279 0.0
-132.049 126.143 0.0
-130.849 129.877 0.0
-130.164 133.095 0.0
-129.833 135.67 0.0
-129.725 137.613 0.0
-129.768 138.982 0.0
-129.95 139.836 0.0
-130.287 140.216 0.0
-130.795 140.158 0.0
-131.062 139.746 0.0
-133.804 141.625 0.0
-135.277 140.901 0.0
-136.861 139.733 0.0
-138.616 138.142 0.0
-140.426 136.153 0.0
-142.135 133.804 0.0
-143.59 131.151 0.0
-144.671 128.28 0.0
-145.296 125.31 0.0
-145.407 122.399 0.0
-144.941 119.766 0.0
-143.817 117.735 0.0
-141.975 116.764 0.0
-139.51 117.344 0.0
-136.795 119.673 0.0
-134.384 123.338 0.0
-132.669 127.501 0.0
-131.704 131.422 0.0
-131.315 134.729 0.0
-131.291 137.343 0.0
-131.475 139.311 0.0
-131.787 140.708 0.0
-132.208 141.594 0.0
-132.749 142.01 0.0
-133.424 141.989 0.0
-133.804 141.625 0.0
-136.444 143.154 0.0
-137.979 142.531 0.0
-139.592 141.449 0.0
-141.346 139.926 0.0
-143.131 137.983 0.0
-144.794 135.651 0.0
-146.188 132.98 0.0
-147.194 130.041 0.0
-147.727 126.937 0.0
-147.73 123.81 0.0
-147.134 120.87 0.0
-145.841 118.451 0.0
-143.759 117.072 0.0
-140.964 117.363 0.0
-137.891 119.661 0.0
-135.231 123.534 0.0
-133.466 127.978 0.0
-132.618 132.126 0.0
-132.443 135.585 0.0
-132.671 138.307 0.0
-133.116 140.367 0.0
-133.682 141.855 0.0
-134.339 142.835 0.0
-135.09 143.346 0.0
-135.94 143.416 0.0
-136.444 143.154 0.0
-138.928 144.258 0.0
-140.536 143.783 0.0
-142.189 142.83 0.0
-143.954 141.411 0.0
-145.727 139.545 0.0
-147.361 137.256 0.0
-148.71 134.587 0.0
-149.657 131.599 0.0
-150.126 128.386 0.0
-150.061 125.075 0.0
-149.399 121.855 0.0
-148.034 119.032 0.0
-145.83 117.132 0.0
-142.786 116.9 0.0
-139.329 118.91 0.0
-136.294 122.852 0.0
-134.329 127.574 0.0
-133.487 132.008 0.0
-133.452 135.688 0.0
-133.889 138.576 0.0
-134.571 140.779 0.0
-135.382 142.403 0.0
-136.276 143.521 0.0
-137.247 144.17 0.0
-138.286 144.375 0.0
-138.928 144.258 0.0
-141.202 144.855 0.0
-142.894 144.564 0.0
-144.597 143.779 0.0
-146.382 142.504 0.0
-148.154 140.752 0.0
-149.771 138.543 0.0
-151.089 135.911 0.0
-151.993 132.909 0.0
-152.41 129.622 0.0
-152.298 126.167 0.0
-151.61 122.709 0.0
-150.247 119.508 0.0
-148.045 117.034 0.0
-144.89 116.081 0.0
-141.087 117.502 0.0
-137.562 121.311 0.0
-135.23 126.291 0.0
-134.262 131.08 0.0
-134.287 135.051 0.0
-134.887 138.158 0.0
-135.782 140.54 0.0
-136.828 142.329 0.0
-137.961 143.611 0.0
-139.159 144.423 0.0
-140.402 144.792 0.0
-141.202 144.855 0.0
-143.208 144.866 0.0
-145 144.787 0.0
-146.764 144.2 0.0
-148.579 143.102 0.0
-150.358 141.499 0.0
-151.967 139.409 0.0
-153.266 136.856 0.0
-154.141 133.885 0.0
-154.523 130.571 0.0
-154.378 127.021 0.0
-153.683 123.384 0.0
-152.367 119.87 0.0
-150.27 116.859 0.0
-147.18 115.078 0.0
-143.17 115.596 0.0
-139.098 118.959 0.0
-136.204 124.118 0.0
-134.941 129.336 0.0
-134.926 133.685 0.0
-135.633 137.064 0.0
-136.71 139.652 0.0
-137.973 141.62 0.0
-139.339 143.074 0.0
-140.77 144.06 0.0
-142.23 144.606 0.0
-143.208 144.866 0.0
-144.888 144.249 0.0
-146.799 144.39 0.0
-148.642 144.02 0.0
-150.498 143.123 0.0
-152.293 141.699 0.0
-153.902 139.76 0.0
-155.192 137.325 0.0
-156.053 134.431 0.0
-156.415 131.142 0.0
-156.251 127.557 0.0
-155.557 123.808 0.0
-154.302 120.073 0.0
-152.364 116.632 0.0
-149.496 114.06 0.0
-145.523 113.446 0.0
-140.986 115.924 0.0
-137.347 121.042 0.0
-135.567 126.748 0.0
-135.374 131.589 0.0
-136.115 135.312 0.0
-137.331 138.135 0.0
-138.785 140.289 0.0
-140.369 141.913 0.0
-142.029 143.069 0.0
-143.712 143.79 0.0
-144.888 144.249 0.0
-146.19 143.011 0.0
-148.242 143.366 0.0
-150.184 143.217 0.0
-152.098 142.533 0.0
-153.921 141.308 0.0
-155.54 139.545 0.0
-156.832 137.261 0.0
-157.692 134.485 0.0
-158.049 131.272 0.0
-157.881 127.71 0.0
-157.193 123.921 0.0
-155.99 120.058 0.0
-154.206 116.331 0.0
-151.638 113.135 0.0
-147.963 111.362 0.0
-143.25 112.49 0.0
-138.799 117.103 0.0
-136.23 123.268 0.0
-135.666 128.751 0.0
-136.34 132.927 0.0
-137.638 136.033 0.0
-139.246 138.382 0.0
-141.022 140.169 0.0
-142.895 141.482 0.0
-144.799 142.367 0.0
-146.19 143.011 0.0
-147.07 141.215 0.0
-149.281 141.765 0.0