# vtk DataFile Version 2.0
Particulate Flow Equations Solution
ASCII
DATASET STRUCTURED_GRID
DIMENSIONS 26 26 1
POINTS 676 double
-10 -10 0
-9.23077 -10 0
-8.46154 -10 0
-7.69231 -10 0
-6.92308 -10 0
-6.15385 -10 0
-5.38462 -10 0
-4.61538 -10 0
-3.84615 -10 0
-3.07692 -10 0
-2.30769 -10 0
-1.53846 -10 0
-0.769231 -10 0
5.55112e-016 -10 0
0.769231 -10 0
1.53846 -10 0
2.30769 -10 0
3.07692 -10 0
3.84615 -10 0
4.61538 -10 0
5.38462 -10 0
6.15385 -10 0
6.92308 -10 0
7.69231 -10 0
8.46154 -10 0
10 -10 0
-10 -9.23077 0
-9.23077 -9.23077 0
-8.46154 -9.23077 0
-7.69231 -9.23077 0
-6.92308 -9.23077 0
-6.15385 -9.23077 0
-5.38462 -9.23077 0
-4.61538 -9.23077 0
-3.84615 -9.23077 0
-3.07692 -9.23077 0
-2.30769 -9.23077 0
-1.53846 -9.23077 0
-0.769231 -9.23077 0
5.55112e-016 -9.23077 0
0.769231 -9.23077 0
1.53846 -9.23077 0
2.30769 -9.23077 0
3.07692 -9.23077 0
3.84615 -9.23077 0
4.61538 -9.23077 0
5.38462 -9.23077 0
6.15385 -9.23077 0
6.92308 -9.23077 0
7.69231 -9.23077 0
8.46154 -9.23077 0
10 -9.23077 0
-10 -8.46154 0
-9.23077 -8.46154 0
-8.46154 -8.46154 0
-7.69231 -8.46154 0
-6.92308 -8.46154 0
-6.15385 -8.46154 0
-5.38462 -8.46154 0
-4.61538 -8.46154 0
-3.84615 -8.46154 0
-3.07692 -8.46154 0
-2.30769 -8.46154 0
-1.53846 -8.46154 0
-0.769231 -8.46154 0
5.55112e-016 -8.46154 0
0.769231 -8.46154 0
1.53846 -8.46154 0
2.30769 -8.46154 0
3.07692 -8.46154 0
3.84615 -8.46154 0
4.61538 -8.46154 0
5.38462 -8.46154 0
6.15385 -8.46154 0
6.92308 -8.46154 0
7.69231 -8.46154 0
8.46154 -8.46154 0
10 -8.46154 0
-10 -7.69231 0
-9.23077 -7.69231 0
-8.46154 -7.69231 0
-7.69231 -7.69231 0
-6.92308 -7.69231 0
-6.15385 -7.69231 0
-5.38462 -7.69231 0
-4.61538 -7.69231 0
-3.84615 -7.69231 0
-3.07692 -7.69231 0
-2.30769 -7.69231 0
-1.53846 -7.69231 0
-0.769231 -7.69231 0
5.55112e-016 -7.69231 0
0.769231 -7.69231 0
1.53846 -7.69231 0
2.30769 -7.69231 0
3.07692 -7.69231 0
3.84615 -7.69231 0
4.61538 -7.69231 0
5.38462 -7.69231 0
6.15385 -7.69231 0
6.92308 -7.69231 0
7.69231 -7.69231 0
8.46154 -7.69231 0
10 -7.69231 0
-10 -6.92308 0
-9.23077 -6.92308 0
-8.46154 -6.92308 0
-7.69231 -6.92308 0
-6.92308 -6.92308 0
-6.15385 -6.92308 0
-5.38462 -6.92308 0
-4.61538 -6.92308 0
-3.84615 -6.92308 0
-3.07692 -6.92308 0
-2.30769 -6.92308 0
-1.53846 -6.92308 0
-0.769231 -6.92308 0
5.55112e-016 -6.92308 0
0.769231 -6.92308 0
1.53846 -6.92308 0
2.30769 -6.92308 0
3.07692 -6.92308 0
3.84615 -6.92308 0
4.61538 -6.92308 0
5.38462 -6.92308 0
6.15385 -6.92308 0
6.92308 -6.92308 0
7.69231 -6.92308 0
8.46154 -6.92308 0
10 -6.92308 0
-10 -6.15385 0
-9.23077 -6.15385 0
-8.46154 -6.15385 0
-7.69231 -6.15385 0
-6.92308 -6.15385 0
-6.15385 -6.15385 0
-5.38462 -6.15385 0
-4.61538 -6.15385 0
-3.84615 -6.15385 0
-3.07692 -6.15385 0
-2.30769 -6.15385 0
-1.53846 -6.15385 0
-0.769231 -6.15385 0
5.55112e-016 -6.15385 0
0.769231 -6.15385 0
1.53846 -6.15385 0
2.30769 -6.15385 0
3.07692 -6.15385 0
3.84615 -6.15385 0
4.61538 -6.15385 0
5.38462 -6.15385 0
6.15385 -6.15385 0
6.92308 -6.15385 0
7.69231 -6.15385 0
8.46154 -6.15385 0
10 -6.15385 0
-10 -5.38462 0
-9.23077 -5.38462 0
-8.46154 -5.38462 0
-7.69231 -5.38462 0
-6.92308 -5.38462 0
-6.15385 -5.38462 0
-5.38462 -5.38462 0
-4.61538 -5.38462 0
-3.84615 -5.38462 0
-3.07692 -5.38462 0
-2.30769 -5.38462 0
-1.53846 -5.38462 0
-0.769231 -5.38462 0
5.55112e-016 -5.38462 0
0.769231 -5.38462 0
1.53846 -5.38462 0
2.30769 -5.38462 0
3.07692 -5.38462 0
3.84615 -5.38462 0
4.61538 -5.38462 0
5.38462 -5.38462 0
6.15385 -5.38462 0
6.92308 -5.38462 0
7.69231 -5.38462 0
8.46154 -5.38462 0
10 -5.38462 0
-10 -4.61538 0
-9.23077 -4.61538 0
-8.46154 -4.61538 0
-7.69231 -4.61538 0
-6.92308 -4.61538 0
-6.15385 -4.61538 0
-5.38462 -4.61538 0
-4.61538 -4.61538 0
-3.84615 -4.61538 0
-3.07692 -4.61538 0
-2.30769 -4.61538 0
-1.53846 -4.61538 0
-0.769231 -4.61538 0
5.55112e-016 -4.61538 0
0.769231 -4.61538 0
1.53846 -4.61538 0
2.30769 -4.61538 0
3.07692 -4.61538 0
3.84615 -4.61538 0
4.61538 -4.61538 0
5.38462 -4.61538 0
6.15385 -4.61538 0
6.92308 -4.61538 0
7.69231 -4.61538 0
8.46154 -4.61538 0
10 -4.61538 0
-10 -3.84615 0
-9.23077 -3.84615 0
-8.46154 -3.84615 0
-7.69231 -3.84615 0
-6.92308 -3.84615 0
-6.15385 -3.84615 0
-5.38462 -3.84615 0
-4.61538 -3.84615 0
-3.84615 -3.84615 0
-3.07692 -3.84615 0
-2.30769 -3.84615 0
-1.53846 -3.84615 0
-0.769231 -3.84615 0
5.55112e-016 -3.84615 0
0.769231 -3.84615 0
1.53846 -3.84615 0
2.30769 -3.84615 0
3.07692 -3.84615 0
3.84615 -3.84615 0
4.61538 -3.84615 0
5.38462 -3.84615 0
6.15385 -3.84615 0
6.92308 -3.84615 0
7.69231 -3.84615 0
8.46154 -3.84615 0
10 -3.84615 0
-10 -3.07692 0
-9.23077 -3.07692 0
-8.46154 -3.07692 0
-7.69231 -3.07692 0
-6.92308 -3.07692 0
-6.15385 -3.07692 0
-5.38462 -3.07692 0
-4.61538 -3.07692 0
-3.84615 -3.07692 0
-3.07692 -3.07692 0
-2.30769 -3.07692 0
-1.53846 -3.07692 0
-0.769231 -3.07692 0
5.55112e-016 -3.07692 0
0.769231 -3.07692 0
1.53846 -3.07692 0
2.30769 -3.07692 0
3.07692 -3.07692 0
3.84615 -3.07692 0
4.61538 -3.07692 0
5.38462 -3.07692 0
6.15385 -3.07692 0
6.92308 -3.07692 0
7.69231 -3.07692 0
8.46154 -3.07692 0
10 -3.07692 0
-10 -2.30769 0
-9.23077 -2.30769 0
-8.46154 -2.30769 0
-7.69231 -2.30769 0
-6.92308 -2.30769 0
-6.15385 -2.30769 0
-5.38462 -2.30769 0
-4.61538 -2.30769 0
-3.84615 -2.30769 0
-3.07692 -2.30769 0
-2.30769 -2.30769 0
-1.53846 -2.30769 0
-0.769231 -2.30769 0
5.55112e-016 -2.30769 0
0.769231 -2.30769 0
1.53846 -2.30769 0
2.30769 -2.30769 0
3.07692 -2.30769 0
3.84615 -2.30769 0
4.61538 -2.30769 0
5.38462 -2.30769 0
6.15385 -2.30769 0
6.92308 -2.30769 0
7.69231 -2.30769 0
8.46154 -2.30769 0
10 -2.30769 0
-10 -1.53846 0
-9.23077 -1.53846 0
-8.46154 -1.53846 0
-7.69231 -1.53846 0
-6.92308 -1.53846 0
-6.15385 -1.53846 0
-5.38462 -1.53846 0
-4.61538 -1.53846 0
-3.84615 -1.53846 0
-3.07692 -1.53846 0
-2.30769 -1.53846 0
-1.53846 -1.53846 0
-0.769231 -1.53846 0
5.55112e-016 -1.53846 0
0.769231 -1.53846 0
1.53846 -1.53846 0
2.30769 -1.53846 0
3.07692 -1.53846 0
3.84615 -1.53846 0
4.61538 -1.53846 0
5.38462 -1.53846 0
6.15385 -1.53846 0
6.92308 -1.53846 0
7.69231 -1.53846 0
8.46154 -1.53846 0
10 -1.53846 0
-10 -0.769231 0
-9.23077 -0.769231 0
-8.46154 -0.769231 0
-7.69231 -0.769231 0
-6.92308 -0.769231 0
-6.15385 -0.769231 0
-5.38462 -0.769231 0
-4.61538 -0.769231 0
-3.84615 -0.769231 0
-3.07692 -0.769231 0
-2.30769 -0.769231 0
-1.53846 -0.769231 0
-0.769231 -0.769231 0
5.55112e-016 -0.769231 0
0.769231 -0.769231 0
1.53846 -0.769231 0
2.30769 -0.769231 0
3.07692 -0.769231 0
3.84615 -0.769231 0
4.61538 -0.769231 0
5.38462 -0.769231 0
6.15385 -0.769231 0
6.92308 -0.769231 0
7.69231 -0.769231 0
8.46154 -0.769231 0
10 -0.769231 0
-10 5.55112e-016 0
-9.23077 5.55112e-016 0
-8.46154 5.55112e-016 0
-7.69231 5.55112e-016 0
-6.92308 5.55112e-016 0
-6.15385 5.55112e-016 0
-5.38462 5.55112e-016 0
-4.61538 5.55112e-016 0
-3.84615 5.55112e-016 0
-3.07692 5.55112e-016 0
-2.30769 5.55112e-016 0
-1.53846 5.55112e-016 0
-0.769231 5.55112e-016 0
5.55112e-016 5.55112e-016 0
0.769231 5.55112e-016 0
1.53846 5.55112e-016 0
2.30769 5.55112e-016 0
3.07692 5.55112e-016 0
3.84615 5.55112e-016 0
4.61538 5.55112e-016 0
5.38462 5.55112e-016 0
6.15385 5.55112e-016 0
6.92308 5.55112e-016 0
7.69231 5.55112e-016 0
8.46154 5.55112e-016 0
10 5.55112e-016 0
-10 0.769231 0
-9.23077 0.769231 0
-8.46154 0.769231 0
-7.69231 0.769231 0
-6.92308 0.769231 0
-6.15385 0.769231 0
-5.38462 0.769231 0
-4.61538 0.769231 0
-3.84615 0.769231 0
-3.07692 0.769231 0
-2.30769 0.769231 0
-1.53846 0.769231 0
-0.769231 0.769231 0
5.55112e-016 0.769231 0
0.769231 0.769231 0
1.53846 0.769231 0
2.30769 0.769231 0
3.07692 0.769231 0
3.84615 0.769231 0
4.61538 0.769231 0
5.38462 0.769231 0
6.15385 0.769231 0
6.92308 0.769231 0
7.69231 0.769231 0
8.46154 0.769231 0
10 0.769231 0
-10 1.53846 0
-9.23077 1.53846 0
-8.46154 1.53846 0
-7.69231 1.53846 0
-6.92308 1.53846 0
-6.15385 1.53846 0
-5.38462 1.53846 0
-4.61538 1.53846 0
-3.84615 1.53846 0
-3.07692 1.53846 0
-2.30769 1.53846 0
-1.53846 1.53846 0
-0.769231 1.53846 0
5.55112e-016 1.53846 0
0.769231 1.53846 0
1.53846 1.53846 0
2.30769 1.53846 0
3.07692 1.53846 0
3.84615 1.53846 0
4.61538 1.53846 0
5.38462 1.53846 0
6.15385 1.53846 0
6.92308 1.53846 0
7.69231 1.53846 0
8.46154 1.53846 0
10 1.53846 0
-10 2.30769 0
-9.23077 2.30769 0
-8.46154 2.30769 0
-7.69231 2.30769 0
-6.92308 2.30769 0
-6.15385 2.30769 0
-5.38462 2.30769 0
-4.61538 2.30769 0
-3.84615 2.30769 0
-3.07692 2.30769 0
-2.30769 2.30769 0
-1.53846 2.30769 0
-0.769231 2.30769 0
5.55112e-016 2.30769 0
0.769231 2.30769 0
1.53846 2.30769 0
2.30769 2.30769 0
3.07692 2.30769 0
3.84615 2.30769 0
4.61538 2.30769 0
5.38462 2.30769 0
6.15385 2.30769 0
6.92308 2.30769 0
7.69231 2.30769 0
8.46154 2.30769 0
10 2.30769 0
-10 3.07692 0
-9.23077 3.07692 0
-8.46154 3.07692 0
-7.69231 3.07692 0
-6.92308 3.07692 0
-6.15385 3.07692 0
-5.38462 3.07692 0
-4.61538 3.07692 0
-3.84615 3.07692 0
-3.07692 3.07692 0
-2.30769 3.07692 0
-1.53846 3.07692 0
-0.769231 3.07692 0
5.55112e-016 3.07692 0
0.769231 3.07692 0
1.53846 3.07692 0
2.30769 3.07692 0
3.07692 3.07692 0
3.84615 3.07692 0
4.61538 3.07692 0
5.38462 3.07692 0
6.15385 3.07692 0
6.92308 3.07692 0
7.69231 3.07692 0
8.46154 3.07692 0
10 3.07692 0
-10 3.84615 0
-9.23077 3.84615 0
-8.46154 3.84615 0
-7.69231 3.84615 0
-6.92308 3.84615 0
-6.15385 3.84615 0
-5.38462 3.84615 0
-4.61538 3.84615 0
-3.84615 3.84615 0
-3.07692 3.84615 0
-2.30769 3.84615 0
-1.53846 3.84615 0
-0.769231 3.84615 0
5.55112e-016 3.84615 0
0.769231 3.84615 0
1.53846 3.84615 0
2.30769 3.84615 0
3.07692 3.84615 0
3.84615 3.84615 0
4.61538 3.84615 0
5.38462 3.84615 0
6.15385 3.84615 0
6.92308 3.84615 0
7.69231 3.84615 0
8.46154 3.84615 0
10 3.84615 0
-10 4.61538 0
-9.23077 4.61538 0
-8.46154 4.61538 0
-7.69231 4.61538 0
-6.92308 4.61538 0
-6.15385 4.61538 0
-5.38462 4.61538 0
-4.61538 4.61538 0
-3.84615 4.61538 0
-3.07692 4.61538 0
-2.30769 4.61538 0
-1.53846 4.61538 0
-0.769231 4.61538 0
5.55112e-016 4.61538 0
0.769231 4.61538 0
1.53846 4.61538 0
2.30769 4.61538 0
3.07692 4.61538 0
3.84615 4.61538 0
4.61538 4.61538 0
5.38462 4.61538 0
6.15385 4.61538 0
6.92308 4.61538 0
7.69231 4.61538 0
8.46154 4.61538 0
10 4.61538 0
-10 5.38462 0
-9.23077 5.38462 0
-8.46154 5.38462 0
-7.69231 5.38462 0
-6.92308 5.38462 0
-6.15385 5.38462 0
-5.38462 5.38462 0
-4.61538 5.38462 0
-3.84615 5.38462 0
-3.07692 5.38462 0
-2.30769 5.38462 0
-1.53846 5.38462 0
-0.769231 5.38462 0
5.55112e-016 5.38462 0
0.769231 5.38462 0
1.53846 5.38462 0
2.30769 5.38462 0
3.07692 5.38462 0
3.84615 5.38462 0
4.61538 5.38462 0
5.38462 5.38462 0
6.15385 5.38462 0
6.92308 5.38462 0
7.69231 5.38462 0
8.46154 5.38462 0
10 5.38462 0
-10 6.15385 0
-9.23077 6.15385 0
-8.46154 6.15385 0
-7.69231 6.15385 0
-6.92308 6.15385 0
-6.15385 6.15385 0
-5.38462 6.15385 0
-4.61538 6.15385 0
-3.84615 6.15385 0
-3.07692 6.15385 0
-2.30769 6.15385 0
-1.53846 6.15385 0
-0.769231 6.15385 0
5.55112e-016 6.15385 0
0.769231 6.15385 0
1.53846 6.15385 0
2.30769 6.15385 0
3.07692 6.15385 0
3.84615 6.15385 0
4.61538 6.15385 0
5.38462 6.15385 0
6.15385 6.15385 0
6.92308 6.15385 0
7.69231 6.15385 0
8.46154 6.15385 0
10 6.15385 0
-10 6.92308 0
-9.23077 6.92308 0
-8.46154 6.92308 0
-7.69231 6.92308 0
-6.92308 6.92308 0
-6.15385 6.92308 0
-5.38462 6.92308 0
-4.61538 6.92308 0
-3.84615 6.92308 0
-3.07692 6.92308 0
-2.30769 6.92308 0
-1.53846 6.92308 0
-0.769231 6.92308 0
5.55112e-016 6.92308 0
0.769231 6.92308 0
1.53846 6.92308 0
2.30769 6.92308 0
3.07692 6.92308 0
3.84615 6.92308 0
4.61538 6.92308 0
5.38462 6.92308 0
6.15385 6.92308 0
6.92308 6.92308 0
7.69231 6.92308 0
8.46154 6.92308 0
10 6.92308 0
-10 7.69231 0
-9.23077 7.69231 0
-8.46154 7.69231 0
-7.69231 7.69231 0
-6.92308 7.69231 0
-6.15385 7.69231 0
-5.38462 7.69231 0
-4.61538 7.69231 0
-3.84615 7.69231 0
-3.07692 7.69231 0
-2.30769 7.69231 0
-1.53846 7.69231 0
-0.769231 7.69231 0
5.55112e-016 7.69231 0
0.769231 7.69231 0
1.53846 7.69231 0
2.30769 7.69231 0
3.07692 7.69231 0
3.84615 7.69231 0
4.61538 7.69231 0
5.38462 7.69231 0
6.15385 7.69231 0
6.92308 7.69231 0
7.69231 7.69231 0
8.46154 7.69231 0
10 7.69231 0
-10 8.46154 0
-9.23077 8.46154 0
-8.46154 8.46154 0
-7.69231 8.46154 0
-6.92308 8.46154 0
-6.15385 8.46154 0
-5.38462 8.46154 0
-4.61538 8.46154 0
-3.84615 8.46154 0
-3.07692 8.46154 0
-2.30769 8.46154 0
-1.53846 8.46154 0
-0.769231 8.46154 0
5.55112e-016 8.46154 0
0.769231 8.46154 0
1.53846 8.46154 0
2.30769 8.46154 0
3.07692 8.46154 0
3.84615 8.46154 0
4.61538 8.46154 0
5.38462 8.46154 0
6.15385 8.46154 0
6.92308 8.46154 0
7.69231 8.46154 0
8.46154 8.46154 0
10 8.46154 0
-10 10 0
-9.23077 10 0
-8.46154 10 0
-7.69231 10 0
-6.92308 10 0
-6.15385 10 0
-5.38462 10 0
-4.61538 10 0
-3.84615 10 0
-3.07692 10 0
-2.30769 10 0
-1.53846 10 0
-0.769231 10 0
5.55112e-016 10 0
0.769231 10 0
1.53846 10 0
2.30769 10 0
3.07692 10 0
3.84615 10 0
4.61538 10 0
5.38462 10 0
6.15385 10 0
6.92308 10 0
7.69231 10 0
8.46154 10 0
10 10 0

POINT_DATA 676
SCALARS h double 1
LOOkUP_TABLE default
0.0536741
0.0488604
0.0450156
0.042169
0.0404346
0.0400303
0.0412865
0.0446385
0.0505545
0.0593586
0.0709491
0.0845274
0.0985371
0.11096
0.119897
0.124158
0.123555
0.118799
0.111124
0.101857
0.0921096
0.0826593
0.0739473
0.0661848
0.0594204
0.0536741
0.0608854
0.0546706
0.0495305
0.0454286
0.0424055
0.0406097
0.0403101
0.0419224
0.0460011
0.0531434
0.0637463
0.0776351
0.093731
0.11003
0.124051
0.133594
0.137438
0.135603
0.129135
0.119598
0.108559
0.0972682
0.0865359
0.0768218
0.0682581
0.0608854
0.069582
0.0617398
0.0551653
0.04974
0.0454255
0.0422895
0.0405088
0.0404112
0.0425108
0.0474968
0.0561021
0.0687779
0.0852179
0.103976
0.122525
0.137896
0.147639
0.150594
0.147095
0.13859
0.127006
0.114135
0.101339
0.0894315
0.0788062
0.069582
0.0798669
0.0701817
0.0619792
0.0551001
0.0494402
0.0449826
0.0418024
0.0401089
0.0402969
0.0429902
0.0490243
0.0592669
0.0741944
0.0933022
0.114696
0.135275
0.151602
0.161063
0.162672
0.157173
0.146464
0.132826
0.118235
0.104104
0.0911999
0.0798669
0.0918608
0.0800878
0.0700407
0.0615409
0.054435
0.048631
0.0441075
0.0409519
0.0394105
0.0399509
0.0433145
0.0504875
0.0624626
0.0797001
0.10143
0.125248
0.147469
0.164251
0.172928
0.172809
0.165122
0.152225
0.136699
0.120652
0.10546
0.0918608
0.105482
0.0914866
0.079398
0.0690951
0.0604095
0.0531933
0.0473419
0.0428328
0.0397686
0.0384355
0.0393769
0.0434539
0.0517992
0.0655081
0.0849763
0.109108
0.134953
0.158278
0.174937
0.182351
0.180239
0.170356
0.155485
0.138433
0.121327
0.105482
0.120352
0.104215
0.0900015
0.077755
0.0673558
0.0586368
0.0514338
0.0456349
0.0412206
0.0383113
0.0372337
0.0386061
0.0434047
0.0528934
0.0682346
0.089703
0.115826
0.143112
0.166856
0.182762
0.188502
0.184311
0.172461
0.156075
0.138014
0.120352
0.135563
0.11778
0.101603
0.0874043
0.075215
0.0649137
0.0563165
0.0492508
0.0436035
0.0393622
0.0366665
0.0358822
0.0376973
0.0431894
0.0537245
0.0704792
0.0935447
0.12104
0.148977
0.172336
0.186881
0.190714
0.184628
0.171318
0.154025
0.135563
0.149533
0.131185
0.113623
0.0977228
0.0838145
0.0719225
0.0619085
0.0535822
0.046772
0.0413701
0.0373746
0.0349441
0.0344802
0.0367293
0.0428461
0.0542507
0.0720648
0.0961334
0.124171
0.151822
0.173983
0.186728
0.188697
0.181179
0.16705
0.149533
0.160018
0.142843
0.125026
0.108079
0.0927864
0.0794518
0.0680781
0.058523
0.050602
0.044153
0.0390793
0.0353916
0.0332673
0.0331364
0.0357861
0.04241
0.0544179
0.072798
0.0971092
0.124731
0.151151
0.171459
0.182228
0.182642
0.174266
0.160018
0.164499
0.150685
0.134301
0.117457
0.101489
0.087115
0.0745961
0.0639263
0.0549727
0.0475676
0.0415657
0.0368855
0.0335523
0.031759
0.0319541
0.0349408
0.0419027
0.0541658
0.0725176
0.096237
0.122509
0.146913
0.16497
0.173838
0.173105
0.164499
0.160967
0.152597
0.139637
0.124487
0.108978
0.0943016
0.0810874
0.0695667
0.0597383
0.0514904
0.0446799
0.039184
0.0349394
0.031986
0.030528
0.0310189
0.0342481
0.0413366
0.0534605
0.0711697
0.0935205
0.117679
0.13954
0.155203
0.162367
0.160967
0.148898
0.147177
0.139388
0.12768
0.114082
0.100182
0.0870071
0.0751076
0.0646972
0.0557912
0.0483071
0.0421322
0.0371691
0.0333743
0.030801
0.0296591
0.0303922
0.0337453
0.0407303
0.0523282
0.0688523
0.0892265
0.11076
0.129823
0.143121
0.148898
0.12985
0.134493
0.132722
0.125855
0.115649
0.103811
0.0916683
0.0800937
0.0695708
0.0603079
0.0523448
0.0456334
0.040094
0.0356561
0.0322955
0.0300768
0.0292087
0.0301103
0.0334569
0.0401179
0.0508616
0.0657962
0.0838075
0.102475
0.118703
0.12985
0.107172
0.116398
0.120164
0.118659
0.112915
0.104354
0.0943513
0.0839902
0.0740061
0.0648324
0.0566812
0.0496221
0.0436436
0.0386992
0.0347446
0.0317739
0.0298595
0.0292025
0.0301854
0.0333955
0.039545
0.0491966
0.062302
0.0777939
0.0935854
0.107172
0.0848267
0.0960388
0.103654
0.106897
0.105874
0.101375
0.0944876
0.0862769
0.077612
0.0691147
0.0611836
0.054043
0.0477953
0.0424652
0.038038
0.0344939
0.0318423
0.0301602
0.0296353
0.0306046
0.0335592
0.0390564
0.0474792
0.0586795
0.0716945
0.0848267
0.065966
0.0767437
0.0859684
0.0924137
0.0954357
0.0950731
0.0918636
0.086583
0.0800277
0.0728876
0.0656978
0.0588379
0.0525521
0.046977
0.0421724
0.0381527
0.0349193
0.0324942
0.0309551
0.0304715
0.031331
0.0339298
0.0386858
0.0458421
0.0552025
0.065966
0.0521055
0.0609116
0.0697593
0.0775148
0.0832102
0.0863101
0.0867457
0.0848107
0.0810063
0.0759042
0.070055
0.0639363
0.0579259
0.0522954
0.0472172
0.042784
0.0390361
0.0359926
0.0336844
0.0321868
0.0316483
0.0323073
0.0344743
0.0384541
0.0443932
0.0521055
0.0432242
0.0495193
0.0567594
0.0642101
0.0710022
0.0763799
0.0798413
0.081184
0.0804729
0.0779732
0.0740789
0.0692434
0.0639175
0.0584966
0.0532882
0.0485025
0.044263
0.0406323
0.0376433
0.0353324
0.0337693
0.0330812
0.0334615
0.0351507
0.0383713
0.0432242
0.0384481
0.0423622
0.0475468
0.0536951
0.060264
0.0666085
0.0720921
0.0761843
0.0785266
0.0789684
0.0775771
0.0746153
0.070484
0.0656407
0.0605198
0.0554754
0.0507576
0.0465189
0.0428402
0.039764
0.0373283
0.0355955
0.0346725
0.0347159
0.035915
0.0384481
0.0367331
0.0386529
0.0418389
0.046286
0.0517929
0.0579989
0.0644007
0.070401
0.0753827
0.0788062
0.0803151
0.0798141
0.0774833
0.0737181
0.069021
0.0638893
0.0587348
0.05385
0.0494137
0.0455203
0.0422174
0.0395414
0.037546
0.0363205
0.0359951
0.0367331
0.0372389
0.0375385
0.0389768
0.0417045
0.0457614
0.05108
0.0574291
0.0643772
0.0712923
0.0774111
0.0819834
0.0844524
0.0845963
0.0825647
0.0788005
0.0738925
0.0684262
0.0628823
0.0575966
0.0527698
0.0485045
0.0448479
0.0418315
0.0394998
0.0379291
0.0372389
0.0394227
0.0383586
0.0382983
0.0394434
0.0419558
0.0459758
0.0515483
0.0585304
0.0664983
0.0747117
0.0821973
0.0879592
0.0912463
0.0917511
0.0896528
0.0855003
0.0800126
0.0738879
0.0676835
0.0617768
0.0563844
0.0516098
0.0474947
0.0440617
0.0413468
0.0394227
0.0430143
0.0407095
0.0393175
0.0390304
0.0400401
0.0425886
0.046917
0.0531714
0.0612604
0.0707051
0.080579
0.0896287
0.0965778
0.100492
0.101029
0.0984676
0.0935249
0.0870922
0.0800007
0.0728881
0.0661675
0.0600629
0.0546709
0.0500208
0.0461246
0.0430143
0.0477632
0.0442426
0.0416184
0.0400202
0.0396168
0.0406668
0.0435016
0.0484711
0.0558145
0.0654555
0.0767926
0.0886282
0.0993577
0.107398
0.11166
0.111839
0.108389
0.10226
0.0945509
0.0862336
0.0780209
0.0703476
0.0634359
0.0573579
0.0521407
0.0477632
0.0536741
0.0488604
0.0450156
0.042169
0.0404346
0.0400303
0.0412865
0.0446385
0.0505545
0.0593586
0.0709491
0.0845274
0.0985371
0.11096
0.119897
0.124158
0.123555
0.118799
0.111124
0.101857
0.0921096
0.0826593
0.0739473
0.0661848
0.0594204
0.0536741

VECTORS u double
-192.391 178.946 0.0
-192.243 177.938 0.0
-191.895 176.907 0.0
-191.437 175.896 0.0
-190.901 174.959 0.0
-190.326 174.184 0.0
-189.781 173.686 0.0
-189.354 173.581 0.0
-189.133 173.936 0.0
-189.168 174.727 0.0
-189.445 175.842 0.0
-189.905 177.124 0.0
-190.465 178.428 0.0
-191.051 179.645 0.0
-191.607 180.701 0.0
-192.095 181.553 0.0
-192.498 182.178 0.0
-192.81 182.567 0.0
-193.032 182.721 0.0
-193.173 182.651 0.0
-193.243 182.375 0.0
-193.246 181.914 0.0
-193.185 181.306 0.0
-193.048 180.56 0.0
-192.828 179.79 0.0
-192.391 178.946 0.0
-193.466 179.978 0.0
-193.248 178.988 0.0
-192.858 177.83 0.0
-192.358 176.7 0.0
-191.758 175.621 0.0
-191.079 174.653 0.0
-190.368 173.894 0.0
-189.71 173.472 0.0
-189.22 173.51 0.0
-189.003 174.06 0.0
-189.105 175.059 0.0
-189.49 176.351 0.0
-190.071 177.756 0.0
-190.75 179.123 0.0
-191.444 180.352 0.0
-192.098 181.382 0.0
-192.675 182.178 0.0
-193.158 182.727 0.0
-193.54 183.027 0.0
-193.825 183.087 0.0
-194.017 182.924 0.0
-194.133 182.566 0.0
-194.161 182.04 0.0
-194.176 181.396 0.0
-194.012 180.662 0.0
-193.466 179.978 0.0
-194.729 180.734 0.0
-194.355 179.824 0.0
-193.871 178.618 0.0
-193.315 177.411 0.0
-192.666 176.231 0.0
-191.921 175.122 0.0
-191.102 174.156 0.0
-190.268 173.447 0.0
-189.526 173.139 0.0
-189.017 173.356 0.0
-188.857 174.124 0.0
-189.072 175.331 0.0
-189.596 176.78 0.0
-190.314 178.278 0.0
-191.116 179.68 0.0
-191.918 180.9 0.0
-192.667 181.888 0.0
-193.33 182.624 0.0
-193.892 183.101 0.0
-194.348 183.325 0.0
-194.706 183.314 0.0
-194.964 183.086 0.0
-195.153 182.682 0.0
-195.252 182.111 0.0
-195.286 181.449 0.0
-194.729 180.734 0.0
-195.856 181.321 0.0
-195.426 180.401 0.0
-194.874 179.219 0.0
-194.268 177.984 0.0
-193.579 176.747 0.0
-192.794 175.547 0.0
-191.913 174.438 0.0
-190.969 173.505 0.0
-190.035 172.878 0.0
-189.248 172.718 0.0
-188.771 173.143 0.0
-188.719 174.138 0.0
-189.087 175.538 0.0
-189.772 177.118 0.0
-190.637 178.681 0.0
-191.565 180.099 0.0
-192.478 181.299 0.0
-193.328 182.248 0.0
-194.086 182.932 0.0
-194.741 183.354 0.0
-195.285 183.522 0.0
-195.729 183.454 0.0
-196.053 183.168 0.0
-196.293 182.687 0.0
-196.335 182.04 0.0
-195.856 181.321 0.0
-196.769 181.728 0.0
-196.354 180.82 0.0
-195.789 179.673 0.0
-195.156 178.438 0.0
-194.443 177.175 0.0
-193.635 175.924 0.0
-192.727 174.725 0.0
-191.727 173.64 0.0
-190.678 172.766 0.0
-189.677 172.251 0.0
-188.889 172.267 0.0
-188.498 172.915 0.0
-188.601 174.132 0.0
-189.154 175.704 0.0
-190.016 177.387 0.0
-191.035 178.995 0.0
-192.099 180.418 0.0
-193.134 181.599 0.0
-194.098 182.515 0.0
-194.963 183.156 0.0
-195.717 183.526 0.0
-196.338 183.626 0.0
-196.824 183.473 0.0
-197.143 183.067 0.0
-197.248 182.456 0.0
-196.769 181.728 0.0
-197.513 181.975 0.0
-197.135 181.101 0.0
-196.582 179.998 0.0
-195.945 178.784 0.0
-195.222 177.519 0.0
-194.405 176.246 0.0
-193.488 175.001 0.0
-192.471 173.827 0.0
-191.371 172.79 0.0
-190.244 172 0.0
-189.213 171.622 0.0
-188.475 171.833 0.0
-188.221 172.708 0.0
-188.523 174.131 0.0
-189.285 175.848 0.0
-190.338 177.61 0.0
-191.523 179.247 0.0
-192.732 180.667 0.0
-193.896 181.825 0.0
-194.975 182.7 0.0
-195.931 183.28 0.0
-196.741 183.562 0.0
-197.366 183.545 0.0
-197.794 183.235 0.0
-197.944 182.672 0.0
-197.513 181.975 0.0
-198.055 182.055 0.0
-197.741 181.247 0.0
-197.226 180.207 0.0
-196.606 179.033 0.0
-195.889 177.787 0.0
-195.076 176.517 0.0
-194.162 175.258 0.0
-193.147 174.044 0.0
-192.038 172.919 0.0
-190.86 171.953 0.0
-189.687 171.27 0.0
-188.67 171.047 0.0
-188.034 171.462 0.0
-187.97 172.555 0.0
-188.504 174.157 0.0
-189.494 175.987 0.0
-190.745 177.801 0.0
-192.098 179.447 0.0
-193.447 180.845 0.0
-194.724 181.954 0.0
-195.879 182.752 0.0
-196.865 183.221 0.0
-197.642 183.358 0.0
-198.178 183.163 0.0
-198.415 182.686 0.0
-198.055 182.055 0.0
-198.373 181.96 0.0
-198.149 181.252 0.0
-197.696 180.298 0.0
-197.115 179.187 0.0
-196.423 177.984 0.0
-195.626 176.741 0.0
-194.726 175.494 0.0
-193.726 174.277 0.0
-192.629 173.12 0.0
-191.448 172.068 0.0
-190.219 171.196 0.0
-189.037 170.638 0.0
-188.082 170.582 0.0
-187.602 171.197 0.0
-187.77 172.481 0.0
-188.559 174.221 0.0
-189.779 176.121 0.0
-191.22 177.948 0.0
-192.719 179.566 0.0
-194.175 180.902 0.0
-195.511 181.914 0.0
-196.672 182.58 0.0
-197.602 182.888 0.0
-198.274 182.839 0.0
-198.624 182.483 0.0
-198.373 181.96 0.0
-198.438 181.676 0.0
-198.332 181.102 0.0
-197.968 180.265 0.0
-197.45 179.246 0.0
-196.803 178.112 0.0
-196.039 176.919 0.0
-195.165 175.71 0.0
-194.189 174.519 0.0
-193.116 173.372 0.0
-191.955 172.299 0.0
-190.727 171.344 0.0
-189.48 170.586 0.0
-188.33 170.166 0.0
-187.488 170.274 0.0
-187.21 171.063 0.0
-187.636 172.491 0.0
-188.679 174.31 0.0
-190.109 176.222 0.0
-191.704 178.01 0.0
-193.304 179.547 0.0
-194.805 180.768 0.0
-196.132 181.634 0.0
-197.227 182.131 0.0
-198.051 182.254 0.0
-198.546 182.056 0.0
-198.438 181.676 0.0
-198.225 181.194 0.0
-198.265 180.785 0.0
-198.018 180.095 0.0
-197.59 179.199 0.0
-197.011 178.164 0.0
-196.299 177.05 0.0
-195.467 175.906 0.0
-194.526 174.767 0.0
-193.487 173.662 0.0
-192.361 172.615 0.0
-191.16 171.652 0.0
-189.914 170.816 0.0
-188.685 170.185 0.0
-187.611 169.902 0.0
-186.925 170.152 0.0
-186.878 171.065 0.0
-187.56 172.565 0.0
-188.828 174.388 0.0
-190.422 176.245 0.0
-192.117 177.933 0.0
-193.756 179.338 0.0
-195.242 180.4 0.0
-196.503 181.095 0.0
-197.497 181.413 0.0
-198.161 181.399 0.0
-198.225 181.194 0.0
-197.718 180.51 0.0
-197.93 180.291 0.0
-197.827 179.776 0.0
-197.516 179.034 0.0
-197.03 178.13 0.0
-196.393 177.126 0.0
-195.621 176.074 0.0
-194.731 175.016 0.0
-193.738 173.982 0.0
-192.656 172.995 0.0
-191.498 172.075 0.0
-190.285 171.243 0.0
-189.053 170.539 0.0
-187.879 170.037 0.0
-186.921 169.873 0.0
-186.42 170.22 0.0
-186.606 171.184 0.0
-187.516 172.669 0.0
-188.956 174.414 0.0
-190.654 176.148 0.0
-192.388 177.684 0.0
-194.013 178.92 0.0
-195.438 179.809 0.0
-196.609 180.331 0.0
-197.457 180.52 0.0
-197.718 180.51 0.0
-196.911 179.631 0.0
-197.316 179.615 0.0
-197.383 179.299 0.0
-197.214 178.738 0.0
-196.847 177.996 0.0
-196.307 177.133 0.0
-195.617 176.205 0.0
-194.797 175.257 0.0
-193.866 174.322 0.0
-192.84 173.425 0.0
-191.737 172.583 0.0
-190.575 171.809 0.0
-189.38 171.12 0.0
-188.195 170.548 0.0
-187.112 170.16 0.0
-186.299 170.077 0.0
-185.992 170.456 0.0
-186.387 171.385 0.0
-187.47 172.767 0.0
-189.019 174.36 0.0
-190.76 175.917 0.0
-192.484 177.268 0.0
-194.056 178.324 0.0
-195.399 179.041 0.0
-196.438 179.437 0.0
-196.911 179.631 0.0
-195.811 178.58 0.0
-196.424 178.769 0.0
-196.679 178.662 0.0
-196.676 178.304 0.0
-196.451 177.749 0.0
-196.034 177.058 0.0
-195.448 176.284 0.0
-194.719 175.476 0.0
-193.867 174.669 0.0
-192.914 173.889 0.0
-191.879 173.154 0.0
-190.782 172.473 0.0
-189.645 171.853 0.0
-188.498 171.303 0.0
-187.394 170.846 0.0
-186.431 170.538 0.0
-185.777 170.485 0.0
-185.652 170.825 0.0
-186.211 171.637 0.0
-187.404 172.84 0.0
-188.997 174.225 0.0
-190.73 175.571 0.0
-192.404 176.726 0.0
-193.899 177.602 0.0
-195.121 178.188 0.0
-195.811 178.58 0.0
-194.444 177.399 0.0
-195.268 177.778 0.0
-195.725 177.879 0.0
-195.904 177.733 0.0
-195.842 177.385 0.0
-195.569 176.889 0.0
-195.11 176.298 0.0
-194.493 175.658 0.0
-193.742 175.007 0.0
-192.88 174.372 0.0
-191.929 173.769 0.0
-190.911 173.205 0.0
-189.848 172.685 0.0
-188.766 172.208 0.0
-187.698 171.775 0.0
-186.703 171.401 0.0
-185.879 171.13 0.0
-185.387 171.051 0.0
-185.417 171.289 0.0
-186.086 171.92 0.0
-187.322 172.892 0.0
-188.902 174.033 0.0
-190.579 175.153 0.0
-192.173 176.107 0.0
-193.549 176.836 0.0
-194.444 177.399 0.0
-192.867 176.161 0.0
-193.887 176.693 0.0
-194.543 176.982 0.0
-194.914 177.042 0.0
-195.029 176.907 0.0
-194.917 176.623 0.0
-194.605 176.236 0.0
-194.121 175.791 0.0
-193.491 175.322 0.0
-192.74 174.856 0.0
-191.893 174.408 0.0
-190.971 173.984 0.0
-189.997 173.584 0.0
-188.997 173.205 0.0
-187.998 172.841 0.0
-187.038 172.489 0.0
-186.175 172.156 0.0
-185.503 171.876 0.0
-185.162 171.725 0.0
-185.31 171.814 0.0
-186.03 172.227 0.0
-187.248 172.94 0.0
-188.758 173.823 0.0
-190.339 174.709 0.0
-191.803 175.487 0.0
-192.867 176.161 0.0
-191.178 174.98 0.0
-192.35 175.594 0.0
-193.185 176.026 0.0
-193.74 176.268 0.0
-194.037 176.337 0.0
-194.097 176.267 0.0
-193.946 176.097 0.0
-193.612 175.864 0.0
-193.122 175.599 0.0
-192.503 175.324 0.0
-191.777 175.051 0.0
-190.969 174.784 0.0
-190.103 174.52 0.0
-189.201 174.255 0.0
-188.291 173.981 0.0
-187.402 173.689 0.0
-186.573 173.373 0.0
-185.858 173.036 0.0
-185.337 172.707 0.0
-185.127 172.452 0.0
-185.351 172.372 0.0
-186.069 172.553 0.0
-187.211 173.003 0.0
-188.601 173.625 0.0
-190.028 174.299 0.0
-191.178 174.98 0.0
-189.544 174.016 0.0
-190.78 174.6 0.0
-191.738 175.097 0.0
-192.447 175.47 0.0
-192.911 175.714 0.0
-193.141 175.845 0.0
-193.158 175.889 0.0