# vtk DataFile Version 2.0
Particulate Flow Equations Solution
ASCII
DATASET STRUCTURED_GRID
DIMENSIONS 26 26 1
POINTS 676 double
-10 -10 0
-9.23077 -10 0
-8.46154 -10 0
-7.69231 -10 0
-6.92308 -10 0
-6.15385 -10 0
-5.38462 -10 0
-4.61538 -10 0
-3.84615 -10 0
-3.07692 -10 0
-2.30769 -10 0
-1.53846 -10 0
-0.769231 -10 0
5.55112e-016 -10 0
0.769231 -10 0
1.53846 -10 0
2.30769 -10 0
3.07692 -10 0
3.84615 -10 0
4.61538 -10 0
5.38462 -10 0
6.15385 -10 0
6.92308 -10 0
7.69231 -10 0
8.46154 -10 0
10 -10 0
-10 -9.23077 0
-9.23077 -9.23077 0
-8.46154 -9.23077 0
-7.69231 -9.23077 0
-6.92308 -9.23077 0
-6.15385 -9.23077 0
-5.38462 -9.23077 0
-4.61538 -9.23077 0
-3.84615 -9.23077 0
-3.07692 -9.23077 0
-2.30769 -9.23077 0
-1.53846 -9.23077 0
-0.769231 -9.23077 0
5.55112e-016 -9.23077 0
0.769231 -9.23077 0
1.53846 -9.23077 0
2.30769 -9.23077 0
3.07692 -9.23077 0
3.84615 -9.23077 0
4.61538 -9.23077 0
5.38462 -9.23077 0
6.15385 -9.23077 0
6.92308 -9.23077 0
7.69231 -9.23077 0
8.46154 -9.23077 0
10 -9.23077 0
-10 -8.46154 0
-9.23077 -8.46154 0
-8.46154 -8.46154 0
-7.69231 -8.46154 0
-6.92308 -8.46154 0
-6.15385 -8.46154 0
-5.38462 -8.46154 0
-4.61538 -8.46154 0
-3.84615 -8.46154 0
-3.07692 -8.46154 0
-2.30769 -8.46154 0
-1.53846 -8.46154 0
-0.769231 -8.46154 0
5.55112e-016 -8.46154 0
0.769231 -8.46154 0
1.53846 -8.46154 0
2.30769 -8.46154 0
3.07692 -8.46154 0
3.84615 -8.46154 0
4.61538 -8.46154 0
5.38462 -8.46154 0
6.15385 -8.46154 0
6.92308 -8.46154 0
7.69231 -8.46154 0
8.46154 -8.46154 0
10 -8.46154 0
-10 -7.69231 0
-9.23077 -7.69231 0
-8.46154 -7.69231 0
-7.69231 -7.69231 0
-6.92308 -7.69231 0
-6.15385 -7.69231 0
-5.38462 -7.69231 0
-4.61538 -7.69231 0
-3.84615 -7.69231 0
-3.07692 -7.69231 0
-2.30769 -7.69231 0
-1.53846 -7.69231 0
-0.769231 -7.69231 0
5.55112e-016 -7.69231 0
0.769231 -7.69231 0
1.53846 -7.69231 0
2.30769 -7.69231 0
3.07692 -7.69231 0
3.84615 -7.69231 0
4.61538 -7.69231 0
5.38462 -7.69231 0
6.15385 -7.69231 0
6.92308 -7.69231 0
7.69231 -7.69231 0
8.46154 -7.69231 0
10 -7.69231 0
-10 -6.92308 0
-9.23077 -6.92308 0
-8.46154 -6.92308 0
-7.69231 -6.92308 0
-6.92308 -6.92308 0
-6.15385 -6.92308 0
-5.38462 -6.92308 0
-4.61538 -6.92308 0
-3.84615 -6.92308 0
-3.07692 -6.92308 0
-2.30769 -6.92308 0
-1.53846 -6.92308 0
-0.769231 -6.92308 0
5.55112e-016 -6.92308 0
0.769231 -6.92308 0
1.53846 -6.92308 0
2.30769 -6.92308 0
3.07692 -6.92308 0
3.84615 -6.92308 0
4.61538 -6.92308 0
5.38462 -6.92308 0
6.15385 -6.92308 0
6.92308 -6.92308 0
7.69231 -6.92308 0
8.46154 -6.92308 0
10 -6.92308 0
-10 -6.15385 0
-9.23077 -6.15385 0
-8.46154 -6.15385 0
-7.69231 -6.15385 0
-6.92308 -6.15385 0
-6.15385 -6.15385 0
-5.38462 -6.15385 0
-4.61538 -6.15385 0
-3.84615 -6.15385 0
-3.07692 -6.15385 0
-2.30769 -6.15385 0
-1.53846 -6.15385 0
-0.769231 -6.15385 0
5.55112e-016 -6.15385 0
0.769231 -6.15385 0
1.53846 -6.15385 0
2.30769 -6.15385 0
3.07692 -6.15385 0
3.84615 -6.15385 0
4.61538 -6.15385 0
5.38462 -6.15385 0
6.15385 -6.15385 0
6.92308 -6.15385 0
7.69231 -6.15385 0
8.46154 -6.15385 0
10 -6.15385 0
-10 -5.38462 0
-9.23077 -5.38462 0
-8.46154 -5.38462 0
-7.69231 -5.38462 0
-6.92308 -5.38462 0
-6.15385 -5.38462 0
-5.38462 -5.38462 0
-4.61538 -5.38462 0
-3.84615 -5.38462 0
-3.07692 -5.38462 0
-2.30769 -5.38462 0
-1.53846 -5.38462 0
-0.769231 -5.38462 0
5.55112e-016 -5.38462 0
0.769231 -5.38462 0
1.53846 -5.38462 0
2.30769 -5.38462 0
3.07692 -5.38462 0
3.84615 -5.38462 0
4.61538 -5.38462 0
5.38462 -5.38462 0
6.15385 -5.38462 0
6.92308 -5.38462 0
7.69231 -5.38462 0
8.46154 -5.38462 0
10 -5.38462 0
-10 -4.61538 0
-9.23077 -4.61538 0
-8.46154 -4.61538 0
-7.69231 -4.61538 0
-6.92308 -4.61538 0
-6.15385 -4.61538 0
-5.38462 -4.61538 0
-4.61538 -4.61538 0
-3.84615 -4.61538 0
-3.07692 -4.61538 0
-2.30769 -4.61538 0
-1.53846 -4.61538 0
-0.769231 -4.61538 0
5.55112e-016 -4.61538 0
0.769231 -4.61538 0
1.53846 -4.61538 0
2.30769 -4.61538 0
3.07692 -4.61538 0
3.84615 -4.61538 0
4.61538 -4.61538 0
5.38462 -4.61538 0
6.15385 -4.61538 0
6.92308 -4.61538 0
7.69231 -4.61538 0
8.46154 -4.61538 0
10 -4.61538 0
-10 -3.84615 0
-9.23077 -3.84615 0
-8.46154 -3.84615 0
-7.69231 -3.84615 0
-6.92308 -3.84615 0
-6.15385 -3.84615 0
-5.38462 -3.84615 0
-4.61538 -3.84615 0
-3.84615 -3.84615 0
-3.07692 -3.84615 0
-2.30769 -3.84615 0
-1.53846 -3.84615 0
-0.769231 -3.84615 0
5.55112e-016 -3.84615 0
0.769231 -3.84615 0
1.53846 -3.84615 0
2.30769 -3.84615 0
3.07692 -3.84615 0
3.84615 -3.84615 0
4.61538 -3.84615 0
5.38462 -3.84615 0
6.15385 -3.84615 0
6.92308 -3.84615 0
7.69231 -3.84615 0
8.46154 -3.84615 0
10 -3.84615 0
-10 -3.07692 0
-9.23077 -3.07692 0
-8.46154 -3.07692 0
-7.69231 -3.07692 0
-6.92308 -3.07692 0
-6.15385 -3.07692 0
-5.38462 -3.07692 0
-4.61538 -3.07692 0
-3.84615 -3.07692 0
-3.07692 -3.07692 0
-2.30769 -3.07692 0
-1.53846 -3.07692 0
-0.769231 -3.07692 0
5.55112e-016 -3.07692 0
0.769231 -3.07692 0
1.53846 -3.07692 0
2.30769 -3.07692 0
3.07692 -3.07692 0
3.84615 -3.07692 0
4.61538 -3.07692 0
5.38462 -3.07692 0
6.15385 -3.07692 0
6.92308 -3.07692 0
7.69231 -3.07692 0
8.46154 -3.07692 0
10 -3.07692 0
-10 -2.30769 0
-9.23077 -2.30769 0
-8.46154 -2.30769 0
-7.69231 -2.30769 0
-6.92308 -2.30769 0
-6.15385 -2.30769 0
-5.38462 -2.30769 0
-4.61538 -2.30769 0
-3.84615 -2.30769 0
-3.07692 -2.30769 0
-2.30769 -2.30769 0
-1.53846 -2.30769 0
-0.769231 -2.30769 0
5.55112e-016 -2.30769 0
0.769231 -2.30769 0
1.53846 -2.30769 0
2.30769 -2.30769 0
3.07692 -2.30769 0
3.84615 -2.30769 0
4.61538 -2.30769 0
5.38462 -2.30769 0
6.15385 -2.30769 0
6.92308 -2.30769 0
7.69231 -2.30769 0
8.46154 -2.30769 0
10 -2.30769 0
-10 -1.53846 0
-9.23077 -1.53846 0
-8.46154 -1.53846 0
-7.69231 -1.53846 0
-6.92308 -1.53846 0
-6.15385 -1.53846 0
-5.38462 -1.53846 0
-4.61538 -1.53846 0
-3.84615 -1.53846 0
-3.07692 -1.53846 0
-2.30769 -1.53846 0
-1.53846 -1.53846 0
-0.769231 -1.53846 0
5.55112e-016 -1.53846 0
0.769231 -1.53846 0
1.53846 -1.53846 0
2.30769 -1.53846 0
3.07692 -1.53846 0
3.84615 -1.53846 0
4.61538 -1.53846 0
5.38462 -1.53846 0
6.15385 -1.53846 0
6.92308 -1.53846 0
7.69231 -1.53846 0
8.46154 -1.53846 0
10 -1.53846 0
-10 -0.769231 0
-9.23077 -0.769231 0
-8.46154 -0.769231 0
-7.69231 -0.769231 0
-6.92308 -0.769231 0
-6.15385 -0.769231 0
-5.38462 -0.769231 0
-4.61538 -0.769231 0
-3.84615 -0.769231 0
-3.07692 -0.769231 0
-2.30769 -0.769231 0
-1.53846 -0.769231 0
-0.769231 -0.769231 0
5.55112e-016 -0.769231 0
0.769231 -0.769231 0
1.53846 -0.769231 0
2.30769 -0.769231 0
3.07692 -0.769231 0
3.84615 -0.769231 0
4.61538 -0.769231 0
5.38462 -0.769231 0
6.15385 -0.769231 0
6.92308 -0.769231 0
7.69231 -0.769231 0
8.46154 -0.769231 0
10 -0.769231 0
-10 5.55112e-016 0
-9.23077 5.55112e-016 0
-8.46154 5.55112e-016 0
-7.69231 5.55112e-016 0
-6.92308 5.55112e-016 0
-6.15385 5.55112e-016 0
-5.38462 5.55112e-016 0
-4.61538 5.55112e-016 0
-3.84615 5.55112e-016 0
-3.07692 5.55112e-016 0
-2.30769 5.55112e-016 0
-1.53846 5.55112e-016 0
-0.769231 5.55112e-016 0
5.55112e-016 5.55112e-016 0
0.769231 5.55112e-016 0
1.53846 5.55112e-016 0
2.30769 5.55112e-016 0
3.07692 5.55112e-016 0
3.84615 5.55112e-016 0
4.61538 5.55112e-016 0
5.38462 5.55112e-016 0
6.15385 5.55112e-016 0
6.92308 5.55112e-016 0
7.69231 5.55112e-016 0
8.46154 5.55112e-016 0
10 5.55112e-016 0
-10 0.769231 0
-9.23077 0.769231 0
-8.46154 0.769231 0
-7.69231 0.769231 0
-6.92308 0.769231 0
-6.15385 0.769231 0
-5.38462 0.769231 0
-4.61538 0.769231 0
-3.84615 0.769231 0
-3.07692 0.769231 0
-2.30769 0.769231 0
-1.53846 0.769231 0
-0.769231 0.769231 0
5.55112e-016 0.769231 0
0.769231 0.769231 0
1.53846 0.769231 0
2.30769 0.769231 0
3.07692 0.769231 0
3.84615 0.769231 0
4.61538 0.769231 0
5.38462 0.769231 0
6.15385 0.769231 0
6.92308 0.769231 0
7.69231 0.769231 0
8.46154 0.769231 0
10 0.769231 0
-10 1.53846 0
-9.23077 1.53846 0
-8.46154 1.53846 0
-7.69231 1.53846 0
-6.92308 1.53846 0
-6.15385 1.53846 0
-5.38462 1.53846 0
-4.61538 1.53846 0
-3.84615 1.53846 0
-3.07692 1.53846 0
-2.30769 1.53846 0
-1.53846 1.53846 0
-0.769231 1.53846 0
5.55112e-016 1.53846 0
0.769231 1.53846 0
1.53846 1.53846 0
2.30769 1.53846 0
3.07692 1.53846 0
3.84615 1.53846 0
4.61538 1.53846 0
5.38462 1.53846 0
6.15385 1.53846 0
6.92308 1.53846 0
7.69231 1.53846 0
8.46154 1.53846 0
10 1.53846 0
-10 2.30769 0
-9.23077 2.30769 0
-8.46154 2.30769 0
-7.69231 2.30769 0
-6.92308 2.30769 0
-6.15385 2.30769 0
-5.38462 2.30769 0
-4.61538 2.30769 0
-3.84615 2.30769 0
-3.07692 2.30769 0
-2.30769 2.30769 0
-1.53846 2.30769 0
-0.769231 2.30769 0
5.55112e-016 2.30769 0
0.769231 2.30769 0
1.53846 2.30769 0
2.30769 2.30769 0
3.07692 2.30769 0
3.84615 2.30769 0
4.61538 2.30769 0
5.38462 2.30769 0
6.15385 2.30769 0
6.92308 2.30769 0
7.69231 2.30769 0
8.46154 2.30769 0
10 2.30769 0
-10 3.07692 0
-9.23077 3.07692 0
-8.46154 3.07692 0
-7.69231 3.07692 0
-6.92308 3.07692 0
-6.15385 3.07692 0
-5.38462 3.07692 0
-4.61538 3.07692 0
-3.84615 3.07692 0
-3.07692 3.07692 0
-2.30769 3.07692 0
-1.53846 3.07692 0
-0.769231 3.07692 0
5.55112e-016 3.07692 0
0.769231 3.07692 0
1.53846 3.07692 0
2.30769 3.07692 0
3.07692 3.07692 0
3.84615 3.07692 0
4.61538 3.07692 0
5.38462 3.07692 0
6.15385 3.07692 0
6.92308 3.07692 0
7.69231 3.07692 0
8.46154 3.07692 0
10 3.07692 0
-10 3.84615 0
-9.23077 3.84615 0
-8.46154 3.84615 0
-7.69231 3.84615 0
-6.92308 3.84615 0
-6.15385 3.84615 0
-5.38462 3.84615 0
-4.61538 3.84615 0
-3.84615 3.84615 0
-3.07692 3.84615 0
-2.30769 3.84615 0
-1.53846 3.84615 0
-0.769231 3.84615 0
5.55112e-016 3.84615 0
0.769231 3.84615 0
1.53846 3.84615 0
2.30769 3.84615 0
3.07692 3.84615 0
3.84615 3.84615 0
4.61538 3.84615 0
5.38462 3.84615 0
6.15385 3.84615 0
6.92308 3.84615 0
7.69231 3.84615 0
8.46154 3.84615 0
10 3.84615 0
-10 4.61538 0
-9.23077 4.61538 0
-8.46154 4.61538 0
-7.69231 4.61538 0
-6.92308 4.61538 0
-6.15385 4.61538 0
-5.38462 4.61538 0
-4.61538 4.61538 0
-3.84615 4.61538 0
-3.07692 4.61538 0
-2.30769 4.61538 0
-1.53846 4.61538 0
-0.769231 4.61538 0
5.55112e-016 4.61538 0
0.769231 4.61538 0
1.53846 4.61538 0
2.30769 4.61538 0
3.07692 4.61538 0
3.84615 4.61538 0
4.61538 4.61538 0
5.38462 4.61538 0
6.15385 4.61538 0
6.92308 4.61538 0
7.69231 4.61538 0
8.46154 4.61538 0
10 4.61538 0
-10 5.38462 0
-9.23077 5.38462 0
-8.46154 5.38462 0
-7.69231 5.38462 0
-6.92308 5.38462 0
-6.15385 5.38462 0
-5.38462 5.38462 0
-4.61538 5.38462 0
-3.84615 5.38462 0
-3.07692 5.38462 0
-2.30769 5.38462 0
-1.53846 5.38462 0
-0.769231 5.38462 0
5.55112e-016 5.38462 0
0.769231 5.38462 0
1.53846 5.38462 0
2.30769 5.38462 0
3.07692 5.38462 0
3.84615 5.38462 0
4.61538 5.38462 0
5.38462 5.38462 0
6.15385 5.38462 0
6.92308 5.38462 0
7.69231 5.38462 0
8.46154 5.38462 0
10 5.38462 0
-10 6.15385 0
-9.23077 6.15385 0
-8.46154 6.15385 0
-7.69231 6.15385 0
-6.92308 6.15385 0
-6.15385 6.15385 0
-5.38462 6.15385 0
-4.61538 6.15385 0
-3.84615 6.15385 0
-3.07692 6.15385 0
-2.30769 6.15385 0
-1.53846 6.15385 0
-0.769231 6.15385 0
5.55112e-016 6.15385 0
0.769231 6.15385 0
1.53846 6.15385 0
2.30769 6.15385 0
3.07692 6.15385 0
3.84615 6.15385 0
4.61538 6.15385 0
5.38462 6.15385 0
6.15385 6.15385 0
6.92308 6.15385 0
7.69231 6.15385 0
8.46154 6.15385 0
10 6.15385 0
-10 6.92308 0
-9.23077 6.92308 0
-8.46154 6.92308 0
-7.69231 6.92308 0
-6.92308 6.92308 0
-6.15385 6.92308 0
-5.38462 6.92308 0
-4.61538 6.92308 0
-3.84615 6.92308 0
-3.07692 6.92308 0
-2.30769 6.92308 0
-1.53846 6.92308 0
-0.769231 6.92308 0
5.55112e-016 6.92308 0
0.769231 6.92308 0
1.53846 6.92308 0
2.30769 6.92308 0
3.07692 6.92308 0
3.84615 6.92308 0
4.61538 6.92308 0
5.38462 6.92308 0
6.15385 6.92308 0
6.92308 6.92308 0
7.69231 6.92308 0
8.46154 6.92308 0
10 6.92308 0
-10 7.69231 0
-9.23077 7.69231 0
-8.46154 7.69231 0
-7.69231 7.69231 0
-6.92308 7.69231 0
-6.15385 7.69231 0
-5.38462 7.69231 0
-4.61538 7.69231 0
-3.84615 7.69231 0
-3.07692 7.69231 0
-2.30769 7.69231 0
-1.53846 7.69231 0
-0.769231 7.69231 0
5.55112e-016 7.69231 0
0.769231 7.69231 0
1.53846 7.69231 0
2.30769 7.69231 0
3.07692 7.69231 0
3.84615 7.69231 0
4.61538 7.69231 0
5.38462 7.69231 0
6.15385 7.69231 0
6.92308 7.69231 0
7.69231 7.69231 0
8.46154 7.69231 0
10 7.69231 0
-10 8.46154 0
-9.23077 8.46154 0
-8.46154 8.46154 0
-7.69231 8.46154 0
-6.92308 8.46154 0
-6.15385 8.46154 0
-5.38462 8.46154 0
-4.61538 8.46154 0
-3.84615 8.46154 0
-3.07692 8.46154 0
-2.30769 8.46154 0
-1.53846 8.46154 0
-0.769231 8.46154 0
5.55112e-016 8.46154 0
0.769231 8.46154 0
1.53846 8.46154 0
2.30769 8.46154 0
3.07692 8.46154 0
3.84615 8.46154 0
4.61538 8.46154 0
5.38462 8.46154 0
6.15385 8.46154 0
6.92308 8.46154 0
7.69231 8.46154 0
8.46154 8.46154 0
10 8.46154 0
-10 10 0
-9.23077 10 0
-8.46154 10 0
-7.69231 10 0
-6.92308 10 0
-6.15385 10 0
-5.38462 10 0
-4.61538 10 0
-3.84615 10 0
-3.07692 10 0
-2.30769 10 0
-1.53846 10 0
-0.769231 10 0
5.55112e-016 10 0
0.769231 10 0
1.53846 10 0
2.30769 10 0
3.07692 10 0
3.84615 10 0
4.61538 10 0
5.38462 10 0
6.15385 10 0
6.92308 10 0
7.69231 10 0
8.46154 10 0
10 10 0

POINT_DATA 676
SCALARS h double 1
LOOkUP_TABLE default
0.137871
0.129557
0.11912
0.107572
0.0958506
0.0845925
0.0741798
0.0648199
0.0566169
0.0496266
0.0438991
0.0395179
0.0366403
0.0355415
0.0366504
0.0405431
0.0478352
0.0589237
0.073616
0.0908263
0.108576
0.124408
0.136072
0.142178
0.142491
0.137871
0.164521
0.156926
0.145529
0.131822
0.117245
0.10289
0.0894454
0.0772869
0.0665854
0.0573954
0.0497242
0.0435879
0.0390623
0.036338
0.0357794
0.0379687
0.0436833
0.0537188
0.0684991
0.0875718
0.109265
0.130836
0.149101
0.161499
0.166543
0.164521
0.190586
0.185724
0.174751
0.159619
0.142359
0.124692
0.107789
0.0923402
0.0786722
0.0668862
0.056964
0.0488518
0.0425282
0.0380668
0.0357064
0.0359263
0.0394989
0.0474387
0.0607242
0.0797408
0.103641
0.130001
0.155196
0.175326
0.187483
0.190586
0.211917
0.212628
0.204408
0.189443
0.170368
0.149644
0.12913
0.110021
0.0929499
0.0781549
0.0656403
0.0553014
0.0470195
0.040739
0.0365419
0.034733
0.035935
0.0411478
0.05165
0.0685848
0.0922004
0.121091
0.151904
0.180062
0.200994
0.211917
0.22371
0.232899
0.230535
0.218367
0.199322
0.176579
0.152843
0.130033
0.109292
0.0911464
0.0757156
0.0628928
0.052485
0.0443142
0.038301
0.034549
0.0334482
0.0357912
0.0428335
0.0561212
0.0768977
0.105128
0.138653
0.173119
0.203032
0.22371
0.221762
0.241409
0.248024
0.242009
0.225879
0.203189
0.17746
0.151506
0.127207
0.105585
0.0870235
0.0715075
0.0588219
0.0486959
0.0409064
0.0353639
0.0322081
0.0319299
0.0355089
0.0444597
0.0605512
0.0850049
0.117329
0.154527
0.191305
0.221762
0.204497
0.234374
0.251881
0.255226
0.24552
0.225947
0.200478
0.172792
0.145671
0.120855
0.0991931
0.080909
0.0658598
0.0537388
0.0442176
0.0370462
0.032141
0.0296891
0.0302906
0.0351087
0.0458814
0.0645044
0.0920251
0.127402
0.166832
0.204497
0.174228
0.211313
0.239176
0.253614
0.25347
0.240534
0.218454
0.191397
0.163004
0.135885
0.111563
0.0906901
0.0733341
0.0592471
0.0480581
0.0394063
0.0330352
0.0288806
0.0271844
0.028651
0.0345994
0.0469173
0.0674994
0.097106
0.134122
0.174228
0.136801
0.175954
0.210788
0.235441
0.246299
0.242908
0.227585
0.204214
0.176915
0.14911
0.123123
0.10022
0.0808529
0.0649622
0.0522265
0.0422421
0.0346417
0.0291814
0.0258278
0.0248781
0.0271242
0.0339904
0.0474144
0.0691691
0.0996461
0.136801
0.0994516
0.135218
0.171734
0.202966
0.223618
0.230838
0.224813
0.208186
0.184825
0.158588
0.132529
0.108624
0.0878683
0.0705413
0.0564899
0.0453559
0.0367333
0.0302719
0.0257563
0.0231921
0.0229271
0.0258127
0.0333127
0.0473094
0.0693411
0.0994516
0.0680794
0.0966183
0.129553
0.162142
0.188852
0.205199
0.20912
0.201308
0.184511
0.162352
0.138259
0.114832
0.0936787
0.0755438
0.06057
0.0485493
0.0391196
0.0318985
0.0265722
0.0229668
0.0211304
0.0214519
0.0248074
0.0326274
0.0466345
0.0680794
0.0455154
0.0655689
0.09149
0.120565
0.148389
0.170186
0.18237
0.183613
0.174934
0.158974
0.138943
0.117742
0.0974915
0.0794446
0.0641359
0.05161
0.0416379
0.0338802
0.0279981
0.0237283
0.0209462
0.019743
0.0205345
0.0241823
0.0320113
0.0455154
0.0315521
0.0440846
0.0620973
0.0847161
0.109323
0.13207
0.149047
0.157559
0.156877
0.148169
0.133807
0.116491
0.0985667
0.0816958
0.0668208
0.0543073
0.0441381
0.0360902
0.0298662
0.0251844
0.0218407
0.0197631
0.0190816
0.0202207
0.023988
0.0315521
0.0242555
0.0312905
0.042487
0.0580696
0.0770293
0.0970134
0.114835
0.127463
0.132997
0.131146
0.12307
0.110776
0.0964266
0.0818425
0.0682748
0.0564069
0.0464772
0.0384367
0.032088
0.027189
0.0235225
0.0209463
0.0194394
0.0191612
0.0205248
0.0242555
0.0214378
0.0249549
0.0312444
0.0408922
0.0538587
0.0691329
0.08472
0.0981197
0.107108
0.110428
0.108073
0.101084
0.0910648
0.0796691
0.0682491
0.0577103
0.0485292
0.0408545
0.0346294
0.0296971
0.0258778
0.0230209
0.0210433
0.0199675
0.01997
0.0214378
0.0214768
0.0228892
0.0260274
0.0314284
0.0394078
0.0497731
0.0615977
0.0732869
0.0829837
0.0891442
0.0909964
0.0886791
0.0830507
0.0753203
0.066688
0.0581094
0.0502097
0.0433084
0.0374982
0.0327352
0.0289131
0.0259171
0.0236593
0.0221081
0.0213192
0.0214768
0.0234475
0.0235855
0.0247802
0.0274076
0.0317988
0.0380937
0.0460282
0.0548211
0.0632734
0.070083
0.074238
0.0752981
0.0734459
0.0693258
0.0637844
0.057633
0.0515032
0.0458026
0.0407403
0.0363844
0.0327212
0.0297012
0.0272721
0.0254014
0.0240992
0.0234475
0.0269544
0.0262339
0.0261712
0.0270052
0.0289768
0.0322878
0.0369689
0.0427545
0.0490415
0.0549884
0.0597384
0.0626664
0.0635335
0.0624905
0.0599573
0.0564564
0.0524738
0.048384
0.0444348
0.0407696
0.0374606
0.0345388
0.032015
0.0298942
0.0281917
0.0269544
0.0319488
0.0305272
0.0295262
0.0291008
0.0294038
0.0306043
0.0328193
0.0360321
0.0400271
0.0443858
0.0485679
0.0520515
0.0544697
0.0556795
0.0557435
0.0548528
0.0532405
0.0511221
0.0486746
0.0460401
0.0433382
0.0406729
0.0381337
0.0357932
0.0337112
0.0319488
0.0386171
0.0364907
0.0346327
0.0331642
0.032181
0.0318075
0.032165
0.0333297
0.035286
0.0378982
0.0409221
0.0440573
0.0470186
0.0495905
0.0516408
0.0530966
0.0539127
0.0540564
0.0535168
0.0523263
0.0505738
0.0483977
0.0459627
0.043431
0.0409429
0.0386171
0.0473252
0.0443833
0.04159
0.0390776
0.0369196
0.035211
0.0340575
0.033559
0.0337847
0.0347522
0.0364204
0.0387
0.0414752
0.0446172
0.0479762
0.051357
0.054503
0.057113
0.0588985
0.0596574
0.0593294
0.058005
0.0558892
0.0532394
0.0503105
0.0473252
0.0585879
0.0546496
0.0507265
0.0470113
0.0435915
0.0405568
0.0380017
0.0360251
0.0347238
0.0341833
0.034474
0.0356538
0.0377708
0.040851
0.0448596
0.0496397
0.054861
0.0600217
0.0645282
0.0678349
0.0695827
0.0696764
0.0682729
0.0656984
0.0623439
0.0585879
0.0730275
0.0678895
0.0625599
0.0573573
0.0524312
0.0478976
0.0438547
0.0403968
0.0376222
0.0356352
0.0345516
0.0345068
0.0356622
0.0381934
0.0422407
0.0478142
0.054679
0.062284
0.0698006
0.0762914
0.0809493
0.083302
0.0832932
0.0812239
0.0776088
0.0730275
0.0913096
0.0848356
0.077793
0.0707236
0.0639108
0.0575463
0.051759
0.0466472
0.0423008
0.0388157
0.0363092
0.0349371
0.0349122
0.0365101
0.0400369
0.0457322
0.0536057
0.0632611
0.0738172
0.0840159
0.0925176
0.0982607
0.100724
0.0999843
0.0965831
0.0913096
0.113096
0.105409
0.0965773
0.0873428
0.0782528
0.0696603
0.0617778
0.0547329
0.0486114
0.0434888
0.0394563
0.0366481
0.0352716
0.035635
0.0381492
0.0432653
0.0513118
0.06224
0.0753818
0.0893869
0.102452
0.112786
0.11911
0.120942
0.118651
0.113096
0.137871
0.129557
0.11912
0.107572
0.0958506
0.0845925
0.0741798
0.0648199
0.0566169
0.0496266
0.0438991
0.0395179
0.0366403
0.0355415
0.0366504
0.0405431
0.0478352
0.0589237
0.073616
0.0908263
0.108576
0.124408
0.136072
0.142178
0.142491
0.137871

VECTORS u double
-177.42 170.79 0.0
-178.024 170.798 0.0
-178.495 170.551 0.0
-178.905 170.066 0.0
-179.256 169.353 0.0
-179.535 168.435 0.0
-179.718 167.341 0.0
-179.779 166.1 0.0
-179.691 164.745 0.0
-179.425 163.31 0.0
-178.956 161.844 0.0
-178.265 160.419 0.0
-177.352 159.153 0.0
-176.265 158.224 0.0
-175.129 157.849 0.0
-174.146 158.195 0.0
-173.514 159.25 0.0
-173.319 160.809 0.0
-173.518 162.594 0.0
-173.993 164.374 0.0
-174.622 166.008 0.0
-175.309 167.422 0.0
-175.988 168.597 0.0
-176.609 169.506 0.0
-177.146 170.251 0.0
-177.42 170.79 0.0
-178.352 171.448 0.0
-178.94 171.691 0.0
-179.457 171.372 0.0
-179.928 170.85 0.0
-180.336 170.109 0.0
-180.66 169.164 0.0
-180.879 168.042 0.0
-180.966 166.771 0.0
-180.897 165.382 0.0
-180.646 163.908 0.0
-180.189 162.386 0.0
-179.502 160.87 0.0
-178.566 159.444 0.0
-177.395 158.255 0.0
-176.073 157.52 0.0
-174.795 157.482 0.0
-173.825 158.254 0.0
-173.359 159.714 0.0
-173.417 161.561 0.0
-173.882 163.501 0.0
-174.6 165.338 0.0
-175.457 166.981 0.0
-176.351 168.393 0.0
-177.319 169.579 0.0
-178.137 170.55 0.0
-178.352 171.448 0.0
-179.446 171.522 0.0
-179.909 172.035 0.0
-180.371 171.823 0.0
-180.854 171.337 0.0
-181.296 170.609 0.0
-181.659 169.663 0.0
-181.913 168.529 0.0
-182.031 167.238 0.0
-181.989 165.824 0.0
-181.763 164.318 0.0
-181.333 162.756 0.0
-180.675 161.177 0.0
-179.765 159.641 0.0
-178.59 158.255 0.0
-177.181 157.2 0.0
-175.678 156.738 0.0
-174.357 157.108 0.0
-173.523 158.336 0.0
-173.326 160.17 0.0
-173.697 162.253 0.0
-174.467 164.313 0.0
-175.472 166.206 0.0
-176.618 167.882 0.0
-177.823 169.305 0.0
-179.032 170.502 0.0
-179.446 171.522 0.0
-180.092 171.11 0.0
-180.636 171.79 0.0
-181.122 171.807 0.0
-181.627 171.451 0.0
-182.104 170.799 0.0
-182.506 169.895 0.0
-182.8 168.78 0.0
-182.954 167.492 0.0
-182.945 166.069 0.0
-182.752 164.547 0.0
-182.356 162.96 0.0
-181.74 161.342 0.0
-180.879 159.739 0.0
-179.751 158.222 0.0
-178.35 156.923 0.0
-176.739 156.069 0.0
-175.133 155.958 0.0
-173.888 156.796 0.0
-173.316 158.478 0.0
-173.477 160.639 0.0
-174.213 162.905 0.0
-175.324 165.049 0.0
-176.635 166.968 0.0
-178.068 168.612 0.0
-179.419 169.966 0.0
-180.092 171.11 0.0
-180.252 170.235 0.0
-180.985 171.095 0.0
-181.59 171.358 0.0
-182.168 171.19 0.0
-182.701 170.671 0.0
-183.157 169.857 0.0
-183.5 168.8 0.0
-183.701 167.546 0.0
-183.735 166.138 0.0
-183.582 164.618 0.0
-183.228 163.023 0.0
-182.657 161.388 0.0
-181.854 159.749 0.0
-180.796 158.159 0.0
-179.462 156.703 0.0
-177.86 155.546 0.0
-176.103 154.964 0.0
-174.495 155.277 0.0
-173.46 156.609 0.0
-173.259 158.703 0.0
-173.832 161.11 0.0
-174.94 163.476 0.0
-176.356 165.622 0.0
-177.906 167.457 0.0
-179.408 168.968 0.0
-180.252 170.235 0.0
-180.008 168.953 0.0
-180.956 170.004 0.0
-181.728 170.511 0.0
-182.423 170.563 0.0
-183.045 170.222 0.0
-183.574 169.545 0.0
-183.983 168.588 0.0
-184.245 167.403 0.0
-184.334 166.041 0.0
-184.233 164.548 0.0
-183.927 162.967 0.0
-183.407 161.336 0.0
-182.662 159.691 0.0
-181.678 158.071 0.0
-180.434 156.534 0.0
-178.912 155.186 0.0
-177.145 154.229 0.0
-175.316 153.985 0.0
-173.826 154.764 0.0
-173.121 156.559 0.0
-173.351 158.965 0.0
-174.325 161.495 0.0
-175.739 163.843 0.0
-177.364 165.868 0.0
-178.968 167.538 0.0
-180.008 168.953 0.0
-179.368 167.315 0.0
-180.541 168.559 0.0
-181.51 169.305 0.0
-182.358 169.592 0.0
-183.101 169.461 0.0
-183.728 168.962 0.0
-184.223 168.146 0.0
-184.561 167.071 0.0
-184.72 165.789 0.0
-184.683 164.355 0.0
-184.437 162.815 0.0
-183.974 161.212 0.0
-183.289 159.585 0.0
-182.374 157.971 0.0
-181.217 156.411 0.0
-179.798 154.973 0.0
-178.112 153.782 0.0
-176.229 153.079 0.0
-174.417 153.213 0.0
-173.158 154.441 0.0
-172.861 156.598 0.0
-173.517 159.167 0.0
-174.82 161.681 0.0
-176.451 163.892 0.0
-178.141 165.738 0.0
-179.368 167.315 0.0
-178.351 165.38 0.0
-179.747 166.813 0.0
-180.926 167.785 0.0
-181.955 168.31 0.0
-182.845 168.408 0.0
-183.597 168.116 0.0
-184.198 167.479 0.0
-184.631 166.552 0.0
-184.876 165.39 0.0
-184.918 164.049 0.0
-184.743 162.581 0.0
-184.347 161.036 0.0
-183.726 159.455 0.0
-182.879 157.876 0.0
-181.799 156.338 0.0
-180.475 154.885 0.0
-178.894 153.59 0.0
-177.07 152.601 0.0
-175.126 152.183 0.0
-173.423 152.69 0.0
-172.489 154.282 0.0
-172.623 156.646 0.0
-173.656 159.223 0.0
-175.215 161.602 0.0
-176.953 163.631 0.0
-178.351 165.38 0.0
-176.976 163.211 0.0
-178.583 164.823 0.0
-179.977 166.005 0.0
-181.202 166.758 0.0
-182.265 167.09 0.0
-183.164 167.025 0.0
-183.893 166.597 0.0
-184.44 165.853 0.0
-184.788 164.848 0.0
-184.923 163.636 0.0
-184.836 162.276 0.0
-184.518 160.82 0.0
-183.969 159.314 0.0
-183.19 157.802 0.0
-182.179 156.32 0.0
-180.934 154.904 0.0
-179.447 153.603 0.0
-177.714 152.495 0.0
-175.782 151.737 0.0
-173.843 151.606 0.0
-172.341 152.423 0.0
-171.795 154.238 0.0
-172.351 156.644 0.0
-173.707 159.099 0.0
-175.436 161.292 0.0
-176.976 163.211 0.0
-175.261 160.89 0.0
-177.06 162.658 0.0
-178.668 164.027 0.0
-180.101 164.991 0.0
-181.352 165.55 0.0
-182.42 165.717 0.0
-183.298 165.514 0.0
-183.977 164.981 0.0
-184.445 164.164 0.0
-184.691 163.119 0.0
-184.704 161.901 0.0
-184.478 160.568 0.0
-184.012 159.17 0.0
-183.305 157.754 0.0
-182.361 156.359 0.0
-181.181 155.022 0.0
-179.766 153.778 0.0
-178.115 152.673 0.0
-176.247 151.785 0.0
-174.253 151.271 0.0
-172.402 151.391 0.0
-171.192 152.407 0.0
-171.072 154.281 0.0
-172.023 156.576 0.0
-173.631 158.836 0.0
-175.261 160.89 0.0
-173.241 158.551 0.0
-175.193 160.416 0.0
-177.007 161.932 0.0
-178.653 163.076 0.0
-180.108 163.841 0.0
-181.361 164.23 0.0
-182.406 164.257 0.0
-183.236 163.948 0.0
-183.842 163.345 0.0
-184.213 162.494 0.0
-184.342 161.452 0.0
-184.221 160.275 0.0
-183.848 159.017 0.0
-183.222 157.728 0.0
-182.346 156.452 0.0
-181.225 155.226 0.0
-179.865 154.085 0.0
-178.275 153.06 0.0
-176.474 152.192 0.0
-174.511 151.55 0.0
-172.532 151.269 0.0
-170.871 151.57 0.0
-170.031 152.645 0.0
-170.342 154.409 0.0
-171.629 156.483 0.0
-173.241 158.551 0.0
-171.014 156.457 0.0
-173.023 158.264 0.0
-175.01 159.838 0.0
-176.868 161.104 0.0
-178.536 162.034 0.0
-179.99 162.619 0.0
-181.219 162.862 0.0
-182.217 162.779 0.0
-182.975 162.399 0.0
-183.487 161.764 0.0
-183.744 160.923 0.0
-183.74 159.931 0.0
-183.471 158.844 0.0
-182.934 157.713 0.0
-182.132 156.586 0.0
-181.071 155.504 0.0
-179.76 154.502 0.0
-178.219 153.608 0.0
-176.473 152.848 0.0
-174.568 152.25 0.0
-172.592 151.859 0.0
-170.739 151.774 0.0
-169.372 152.155 0.0
-168.943 153.135 0.0
-169.638 154.65 0.0
-171.014 156.457 0.0
-168.846 155.064 0.0
-170.688 156.516 0.0
-172.742 157.953 0.0
-174.776 159.22 0.0
-176.653 160.238 0.0
-178.317 160.966 0.0
-179.744 161.391 0.0
-180.923 161.514 0.0
-181.849 161.353 0.0
-182.514 160.939 0.0
-182.911 160.314 0.0
-183.034 159.53 0.0
-182.877 158.638 0.0
-182.438 157.694 0.0
-181.716 156.745 0.0
-180.72 155.838 0.0
-179.462 155.008 0.0
-177.97 154.284 0.0
-176.28 153.686 0.0
-174.442 153.223 0.0
-172.532 152.901 0.0
-170.666 152.736 0.0
-169.062 152.774 0.0
-168.06 153.115 0.0
-168.017 153.87 0.0
-168.846 155.064 0.0
-167.178 154.846 0.0
-168.531 155.639 0.0
-170.402 156.632 0.0
-172.482 157.674 0.0
-174.518 158.626 0.0
-176.377 159.396 0.0
-178.003 159.934 0.0
-179.373 160.218 0.0
-180.475 160.25 0.0
-181.302 160.046 0.0
-181.848 159.639 0.0
-182.105 159.071 0.0
-182.068 158.394 0.0
-181.733 157.659 0.0
-181.099 156.917 0.0
-180.176 156.213 0.0
-178.982 155.586 0.0
-177.552 155.065 0.0
-175.931 154.663 0.0
-174.18 154.383 0.0
-172.369 154.213 0.0
-170.59 154.132 0.0
-168.968 154.119 0.0
-167.702 154.179 0.0
-167.073 154.375 0.0
-167.178 154.846 0.0
-166.342 155.848 0.0
-167.042 155.984 0.0
-168.408 156.31 0.0
-170.261 156.839 0.0
-172.293 157.479 0.0
-174.269 158.111 0.0
-176.06 158.638 0.0
-177.608 158.999 0.0
-178.884 159.166 0.0
-179.875 159.137 0.0
-180.572 158.929 0.0
-180.967 158.575 0.0
-181.053 158.118 0.0
-180.826 157.607 0.0
-180.288 157.093 0.0
-179.45 156.62 0.0
-178.337 156.225 0.0
-176.99 155.933 0.0
-175.465 155.754 0.0
-173.829 155.681 0.0
-172.154 155.693 0.0
-170.516 155.755 0.0
-169 155.824 0.0
-167.715 155.856 0.0
-166.815 155.839 0.0
-166.342 155.848 0.0
-166.297 157.61 0.0
-166.496 157.391 0.0
-167.241 157.158 0.0
-168.579 157.054 0.0
-170.324 157.147 0.0
-172.221 157.402 0.0
-174.065 157.723 0.0
-175.728 158.018 0.0
-177.146 158.22 0.0
-178.283 158.297 0.0
-179.122 158.244 0.0
-179.649 158.078 0.0
-179.857 157.833 0.0
-179.74 157.551 0.0
-179.304 157.278 0.0
-178.564 157.056 0.0
-177.553 156.916 0.0
-176.319 156.876 0.0
-174.925 156.936 0.0
-173.441 157.08 0.0
-171.937 157.279 0.0
-170.481 157.493 0.0
-169.136 157.674 0.0
-167.965 157.772 0.0
-167.039 157.746 0.0
-166.297 157.61 0.0
-166.785 159.628 0.0
-166.758 159.324 0.0
-167.058 158.842 0.0
-167.832 158.293 0.0
-169.064 157.826 0.0
-170.617 157.543 0.0
-172.299 157.452 0.0
-173.934 157.49 0.0