# vtk DataFile Version 2.0
Particulate Flow Equations Solution
ASCII
DATASET STRUCTURED_GRID
DIMENSIONS 26 26 1
POINTS 676 double
-10 -10 0
-9.23077 -10 0
-8.46154 -10 0
-7.69231 -10 0
-6.92308 -10 0
-6.15385 -10 0
-5.38462 -10 0
-4.61538 -10 0
-3.84615 -10 0
-3.07692 -10 0
-2.30769 -10 0
-1.53846 -10 0
-0.769231 -10 0
5.55112e-016 -10 0
0.769231 -10 0
1.53846 -10 0
2.30769 -10 0
3.07692 -10 0
3.84615 -10 0
4.61538 -10 0
5.38462 -10 0
6.15385 -10 0
6.92308 -10 0
7.69231 -10 0
8.46154 -10 0
10 -10 0
-10 -9.23077 0
-9.23077 -9.23077 0
-8.46154 -9.23077 0
-7.69231 -9.23077 0
-6.92308 -9.23077 0
-6.15385 -9.23077 0
-5.38462 -9.23077 0
-4.61538 -9.23077 0
-3.84615 -9.23077 0
-3.07692 -9.23077 0
-2.30769 -9.23077 0
-1.53846 -9.23077 0
-0.769231 -9.23077 0
5.55112e-016 -9.23077 0
0.769231 -9.23077 0
1.53846 -9.23077 0
2.30769 -9.23077 0
3.07692 -9.23077 0
3.84615 -9.23077 0
4.61538 -9.23077 0
5.38462 -9.23077 0
6.15385 -9.23077 0
6.92308 -9.23077 0
7.69231 -9.23077 0
8.46154 -9.23077 0
10 -9.23077 0
-10 -8.46154 0
-9.23077 -8.46154 0
-8.46154 -8.46154 0
-7.69231 -8.46154 0
-6.92308 -8.46154 0
-6.15385 -8.46154 0
-5.38462 -8.46154 0
-4.61538 -8.46154 0
-3.84615 -8.46154 0
-3.07692 -8.46154 0
-2.30769 -8.46154 0
-1.53846 -8.46154 0
-0.769231 -8.46154 0
5.55112e-016 -8.46154 0
0.769231 -8.46154 0
1.53846 -8.46154 0
2.30769 -8.46154 0
3.07692 -8.46154 0
3.84615 -8.46154 0
4.61538 -8.46154 0
5.38462 -8.46154 0
6.15385 -8.46154 0
6.92308 -8.46154 0
7.69231 -8.46154 0
8.46154 -8.46154 0
10 -8.46154 0
-10 -7.69231 0
-9.23077 -7.69231 0
-8.46154 -7.69231 0
-7.69231 -7.69231 0
-6.92308 -7.69231 0
-6.15385 -7.69231 0
-5.38462 -7.69231 0
-4.61538 -7.69231 0
-3.84615 -7.69231 0
-3.07692 -7.69231 0
-2.30769 -7.69231 0
-1.53846 -7.69231 0
-0.769231 -7.69231 0
5.55112e-016 -7.69231 0
0.769231 -7.69231 0
1.53846 -7.69231 0
2.30769 -7.69231 0
3.07692 -7.69231 0
3.84615 -7.69231 0
4.61538 -7.69231 0
5.38462 -7.69231 0
6.15385 -7.69231 0
6.92308 -7.69231 0
7.69231 -7.69231 0
8.46154 -7.69231 0
10 -7.69231 0
-10 -6.92308 0
-9.23077 -6.92308 0
-8.46154 -6.92308 0
-7.69231 -6.92308 0
-6.92308 -6.92308 0
-6.15385 -6.92308 0
-5.38462 -6.92308 0
-4.61538 -6.92308 0
-3.84615 -6.92308 0
-3.07692 -6.92308 0
-2.30769 -6.92308 0
-1.53846 -6.92308 0
-0.769231 -6.92308 0
5.55112e-016 -6.92308 0
0.769231 -6.92308 0
1.53846 -6.92308 0
2.30769 -6.92308 0
3.07692 -6.92308 0
3.84615 -6.92308 0
4.61538 -6.92308 0
5.38462 -6.92308 0
6.15385 -6.92308 0
6.92308 -6.92308 0
7.69231 -6.92308 0
8.46154 -6.92308 0
10 -6.92308 0
-10 -6.15385 0
-9.23077 -6.15385 0
-8.46154 -6.15385 0
-7.69231 -6.15385 0
-6.92308 -6.15385 0
-6.15385 -6.15385 0
-5.38462 -6.15385 0
-4.61538 -6.15385 0
-3.84615 -6.15385 0
-3.07692 -6.15385 0
-2.30769 -6.15385 0
-1.53846 -6.15385 0
-0.769231 -6.15385 0
5.55112e-016 -6.15385 0
0.769231 -6.15385 0
1.53846 -6.15385 0
2.30769 -6.15385 0
3.07692 -6.15385 0
3.84615 -6.15385 0
4.61538 -6.15385 0
5.38462 -6.15385 0
6.15385 -6.15385 0
6.92308 -6.15385 0
7.69231 -6.15385 0
8.46154 -6.15385 0
10 -6.15385 0
-10 -5.38462 0
-9.23077 -5.38462 0
-8.46154 -5.38462 0
-7.69231 -5.38462 0
-6.92308 -5.38462 0
-6.15385 -5.38462 0
-5.38462 -5.38462 0
-4.61538 -5.38462 0
-3.84615 -5.38462 0
-3.07692 -5.38462 0
-2.30769 -5.38462 0
-1.53846 -5.38462 0
-0.769231 -5.38462 0
5.55112e-016 -5.38462 0
0.769231 -5.38462 0
1.53846 -5.38462 0
2.30769 -5.38462 0
3.07692 -5.38462 0
3.84615 -5.38462 0
4.61538 -5.38462 0
5.38462 -5.38462 0
6.15385 -5.38462 0
6.92308 -5.38462 0
7.69231 -5.38462 0
8.46154 -5.38462 0
10 -5.38462 0
-10 -4.61538 0
-9.23077 -4.61538 0
-8.46154 -4.61538 0
-7.69231 -4.61538 0
-6.92308 -4.61538 0
-6.15385 -4.61538 0
-5.38462 -4.61538 0
-4.61538 -4.61538 0
-3.84615 -4.61538 0
-3.07692 -4.61538 0
-2.30769 -4.61538 0
-1.53846 -4.61538 0
-0.769231 -4.61538 0
5.55112e-016 -4.61538 0
0.769231 -4.61538 0
1.53846 -4.61538 0
2.30769 -4.61538 0
3.07692 -4.61538 0
3.84615 -4.61538 0
4.61538 -4.61538 0
5.38462 -4.61538 0
6.15385 -4.61538 0
6.92308 -4.61538 0
7.69231 -4.61538 0
8.46154 -4.61538 0
10 -4.61538 0
-10 -3.84615 0
-9.23077 -3.84615 0
-8.46154 -3.84615 0
-7.69231 -3.84615 0
-6.92308 -3.84615 0
-6.15385 -3.84615 0
-5.38462 -3.84615 0
-4.61538 -3.84615 0
-3.84615 -3.84615 0
-3.07692 -3.84615 0
-2.30769 -3.84615 0
-1.53846 -3.84615 0
-0.769231 -3.84615 0
5.55112e-016 -3.84615 0
0.769231 -3.84615 0
1.53846 -3.84615 0
2.30769 -3.84615 0
3.07692 -3.84615 0
3.84615 -3.84615 0
4.61538 -3.84615 0
5.38462 -3.84615 0
6.15385 -3.84615 0
6.92308 -3.84615 0
7.69231 -3.84615 0
8.46154 -3.84615 0
10 -3.84615 0
-10 -3.07692 0
-9.23077 -3.07692 0
-8.46154 -3.07692 0
-7.69231 -3.07692 0
-6.92308 -3.07692 0
-6.15385 -3.07692 0
-5.38462 -3.07692 0
-4.61538 -3.07692 0
-3.84615 -3.07692 0
-3.07692 -3.07692 0
-2.30769 -3.07692 0
-1.53846 -3.07692 0
-0.769231 -3.07692 0
5.55112e-016 -3.07692 0
0.769231 -3.07692 0
1.53846 -3.07692 0
2.30769 -3.07692 0
3.07692 -3.07692 0
3.84615 -3.07692 0
4.61538 -3.07692 0
5.38462 -3.07692 0
6.15385 -3.07692 0
6.92308 -3.07692 0
7.69231 -3.07692 0
8.46154 -3.07692 0
10 -3.07692 0
-10 -2.30769 0
-9.23077 -2.30769 0
-8.46154 -2.30769 0
-7.69231 -2.30769 0
-6.92308 -2.30769 0
-6.15385 -2.30769 0
-5.38462 -2.30769 0
-4.61538 -2.30769 0
-3.84615 -2.30769 0
-3.07692 -2.30769 0
-2.30769 -2.30769 0
-1.53846 -2.30769 0
-0.769231 -2.30769 0
5.55112e-016 -2.30769 0
0.769231 -2.30769 0
1.53846 -2.30769 0
2.30769 -2.30769 0
3.07692 -2.30769 0
3.84615 -2.30769 0
4.61538 -2.30769 0
5.38462 -2.30769 0
6.15385 -2.30769 0
6.92308 -2.30769 0
7.69231 -2.30769 0
8.46154 -2.30769 0
10 -2.30769 0
-10 -1.53846 0
-9.23077 -1.53846 0
-8.46154 -1.53846 0
-7.69231 -1.53846 0
-6.92308 -1.53846 0
-6.15385 -1.53846 0
-5.38462 -1.53846 0
-4.61538 -1.53846 0
-3.84615 -1.53846 0
-3.07692 -1.53846 0
-2.30769 -1.53846 0
-1.53846 -1.53846 0
-0.769231 -1.53846 0
5.55112e-016 -1.53846 0
0.769231 -1.53846 0
1.53846 -1.53846 0
2.30769 -1.53846 0
3.07692 -1.53846 0
3.84615 -1.53846 0
4.61538 -1.53846 0
5.38462 -1.53846 0
6.15385 -1.53846 0
6.92308 -1.53846 0
7.69231 -1.53846 0
8.46154 -1.53846 0
10 -1.53846 0
-10 -0.769231 0
-9.23077 -0.769231 0
-8.46154 -0.769231 0
-7.69231 -0.769231 0
-6.92308 -0.769231 0
-6.15385 -0.769231 0
-5.38462 -0.769231 0
-4.61538 -0.769231 0
-3.84615 -0.769231 0
-3.07692 -0.769231 0
-2.30769 -0.769231 0
-1.53846 -0.769231 0
-0.769231 -0.769231 0
5.55112e-016 -0.769231 0
0.769231 -0.769231 0
1.53846 -0.769231 0
2.30769 -0.769231 0
3.07692 -0.769231 0
3.84615 -0.769231 0
4.61538 -0.769231 0
5.38462 -0.769231 0
6.15385 -0.769231 0
6.92308 -0.769231 0
7.69231 -0.769231 0
8.46154 -0.769231 0
10 -0.769231 0
-10 5.55112e-016 0
-9.23077 5.55112e-016 0
-8.46154 5.55112e-016 0
-7.69231 5.55112e-016 0
-6.92308 5.55112e-016 0
-6.15385 5.55112e-016 0
-5.38462 5.55112e-016 0
-4.61538 5.55112e-016 0
-3.84615 5.55112e-016 0
-3.07692 5.55112e-016 0
-2.30769 5.55112e-016 0
-1.53846 5.55112e-016 0
-0.769231 5.55112e-016 0
5.55112e-016 5.55112e-016 0
0.769231 5.55112e-016 0
1.53846 5.55112e-016 0
2.30769 5.55112e-016 0
3.07692 5.55112e-016 0
3.84615 5.55112e-016 0
4.61538 5.55112e-016 0
5.38462 5.55112e-016 0
6.15385 5.55112e-016 0
6.92308 5.55112e-016 0
7.69231 5.55112e-016 0
8.46154 5.55112e-016 0
10 5.55112e-016 0
-10 0.769231 0
-9.23077 0.769231 0
-8.46154 0.769231 0
-7.69231 0.769231 0
-6.92308 0.769231 0
-6.15385 0.769231 0
-5.38462 0.769231 0
-4.61538 0.769231 0
-3.84615 0.769231 0
-3.07692 0.769231 0
-2.30769 0.769231 0
-1.53846 0.769231 0
-0.769231 0.769231 0
5.55112e-016 0.769231 0
0.769231 0.769231 0
1.53846 0.769231 0
2.30769 0.769231 0
3.07692 0.769231 0
3.84615 0.769231 0
4.61538 0.769231 0
5.38462 0.769231 0
6.15385 0.769231 0
6.92308 0.769231 0
7.69231 0.769231 0
8.46154 0.769231 0
10 0.769231 0
-10 1.53846 0
-9.23077 1.53846 0
-8.46154 1.53846 0
-7.69231 1.53846 0
-6.92308 1.53846 0
-6.15385 1.53846 0
-5.38462 1.53846 0
-4.61538 1.53846 0
-3.84615 1.53846 0
-3.07692 1.53846 0
-2.30769 1.53846 0
-1.53846 1.53846 0
-0.769231 1.53846 0
5.55112e-016 1.53846 0
0.769231 1.53846 0
1.53846 1.53846 0
2.30769 1.53846 0
3.07692 1.53846 0
3.84615 1.53846 0
4.61538 1.53846 0
5.38462 1.53846 0
6.15385 1.53846 0
6.92308 1.53846 0
7.69231 1.53846 0
8.46154 1.53846 0
10 1.53846 0
-10 2.30769 0
-9.23077 2.30769 0
-8.46154 2.30769 0
-7.69231 2.30769 0
-6.92308 2.30769 0
-6.15385 2.30769 0
-5.38462 2.30769 0
-4.61538 2.30769 0
-3.84615 2.30769 0
-3.07692 2.30769 0
-2.30769 2.30769 0
-1.53846 2.30769 0
-0.769231 2.30769 0
5.55112e-016 2.30769 0
0.769231 2.30769 0
1.53846 2.30769 0
2.30769 2.30769 0
3.07692 2.30769 0
3.84615 2.30769 0
4.61538 2.30769 0
5.38462 2.30769 0
6.15385 2.30769 0
6.92308 2.30769 0
7.69231 2.30769 0
8.46154 2.30769 0
10 2.30769 0
-10 3.07692 0
-9.23077 3.07692 0
-8.46154 3.07692 0
-7.69231 3.07692 0
-6.92308 3.07692 0
-6.15385 3.07692 0
-5.38462 3.07692 0
-4.61538 3.07692 0
-3.84615 3.07692 0
-3.07692 3.07692 0
-2.30769 3.07692 0
-1.53846 3.07692 0
-0.769231 3.07692 0
5.55112e-016 3.07692 0
0.769231 3.07692 0
1.53846 3.07692 0
2.30769 3.07692 0
3.07692 3.07692 0
3.84615 3.07692 0
4.61538 3.07692 0
5.38462 3.07692 0
6.15385 3.07692 0
6.92308 3.07692 0
7.69231 3.07692 0
8.46154 3.07692 0
10 3.07692 0
-10 3.84615 0
-9.23077 3.84615 0
-8.46154 3.84615 0
-7.69231 3.84615 0
-6.92308 3.84615 0
-6.15385 3.84615 0
-5.38462 3.84615 0
-4.61538 3.84615 0
-3.84615 3.84615 0
-3.07692 3.84615 0
-2.30769 3.84615 0
-1.53846 3.84615 0
-0.769231 3.84615 0
5.55112e-016 3.84615 0
0.769231 3.84615 0
1.53846 3.84615 0
2.30769 3.84615 0
3.07692 3.84615 0
3.84615 3.84615 0
4.61538 3.84615 0
5.38462 3.84615 0
6.15385 3.84615 0
6.92308 3.84615 0
7.69231 3.84615 0
8.46154 3.84615 0
10 3.84615 0
-10 4.61538 0
-9.23077 4.61538 0
-8.46154 4.61538 0
-7.69231 4.61538 0
-6.92308 4.61538 0
-6.15385 4.61538 0
-5.38462 4.61538 0
-4.61538 4.61538 0
-3.84615 4.61538 0
-3.07692 4.61538 0
-2.30769 4.61538 0
-1.53846 4.61538 0
-0.769231 4.61538 0
5.55112e-016 4.61538 0
0.769231 4.61538 0
1.53846 4.61538 0
2.30769 4.61538 0
3.07692 4.61538 0
3.84615 4.61538 0
4.61538 4.61538 0
5.38462 4.61538 0
6.15385 4.61538 0
6.92308 4.61538 0
7.69231 4.61538 0
8.46154 4.61538 0
10 4.61538 0
-10 5.38462 0
-9.23077 5.38462 0
-8.46154 5.38462 0
-7.69231 5.38462 0
-6.92308 5.38462 0
-6.15385 5.38462 0
-5.38462 5.38462 0
-4.61538 5.38462 0
-3.84615 5.38462 0
-3.07692 5.38462 0
-2.30769 5.38462 0
-1.53846 5.38462 0
-0.769231 5.38462 0
5.55112e-016 5.38462 0
0.769231 5.38462 0
1.53846 5.38462 0
2.30769 5.38462 0
3.07692 5.38462 0
3.84615 5.38462 0
4.61538 5.38462 0
5.38462 5.38462 0
6.15385 5.38462 0
6.92308 5.38462 0
7.69231 5.38462 0
8.46154 5.38462 0
10 5.38462 0
-10 6.15385 0
-9.23077 6.15385 0
-8.46154 6.15385 0
-7.69231 6.15385 0
-6.92308 6.15385 0
-6.15385 6.15385 0
-5.38462 6.15385 0
-4.61538 6.15385 0
-3.84615 6.15385 0
-3.07692 6.15385 0
-2.30769 6.15385 0
-1.53846 6.15385 0
-0.769231 6.15385 0
5.55112e-016 6.15385 0
0.769231 6.15385 0
1.53846 6.15385 0
2.30769 6.15385 0
3.07692 6.15385 0
3.84615 6.15385 0
4.61538 6.15385 0
5.38462 6.15385 0
6.15385 6.15385 0
6.92308 6.15385 0
7.69231 6.15385 0
8.46154 6.15385 0
10 6.15385 0
-10 6.92308 0
-9.23077 6.92308 0
-8.46154 6.92308 0
-7.69231 6.92308 0
-6.92308 6.92308 0
-6.15385 6.92308 0
-5.38462 6.92308 0
-4.61538 6.92308 0
-3.84615 6.92308 0
-3.07692 6.92308 0
-2.30769 6.92308 0
-1.53846 6.92308 0
-0.769231 6.92308 0
5.55112e-016 6.92308 0
0.769231 6.92308 0
1.53846 6.92308 0
2.30769 6.92308 0
3.07692 6.92308 0
3.84615 6.92308 0
4.61538 6.92308 0
5.38462 6.92308 0
6.15385 6.92308 0
6.92308 6.92308 0
7.69231 6.92308 0
8.46154 6.92308 0
10 6.92308 0
-10 7.69231 0
-9.23077 7.69231 0
-8.46154 7.69231 0
-7.69231 7.69231 0
-6.92308 7.69231 0
-6.15385 7.69231 0
-5.38462 7.69231 0
-4.61538 7.69231 0
-3.84615 7.69231 0
-3.07692 7.69231 0
-2.30769 7.69231 0
-1.53846 7.69231 0
-0.769231 7.69231 0
5.55112e-016 7.69231 0
0.769231 7.69231 0
1.53846 7.69231 0
2.30769 7.69231 0
3.07692 7.69231 0
3.84615 7.69231 0
4.61538 7.69231 0
5.38462 7.69231 0
6.15385 7.69231 0
6.92308 7.69231 0
7.69231 7.69231 0
8.46154 7.69231 0
10 7.69231 0
-10 8.46154 0
-9.23077 8.46154 0
-8.46154 8.46154 0
-7.69231 8.46154 0
-6.92308 8.46154 0
-6.15385 8.46154 0
-5.38462 8.46154 0
-4.61538 8.46154 0
-3.84615 8.46154 0
-3.07692 8.46154 0
-2.30769 8.46154 0
-1.53846 8.46154 0
-0.769231 8.46154 0
5.55112e-016 8.46154 0
0.769231 8.46154 0
1.53846 8.46154 0
2.30769 8.46154 0
3.07692 8.46154 0
3.84615 8.46154 0
4.61538 8.46154 0
5.38462 8.46154 0
6.15385 8.46154 0
6.92308 8.46154 0
7.69231 8.46154 0
8.46154 8.46154 0
10 8.46154 0
-10 10 0
-9.23077 10 0
-8.46154 10 0
-7.69231 10 0
-6.92308 10 0
-6.15385 10 0
-5.38462 10 0
-4.61538 10 0
-3.84615 10 0
-3.07692 10 0
-2.30769 10 0
-1.53846 10 0
-0.769231 10 0
5.55112e-016 10 0
0.769231 10 0
1.53846 10 0
2.30769 10 0
3.07692 10 0
3.84615 10 0
4.61538 10 0
5.38462 10 0
6.15385 10 0
6.92308 10 0
7.69231 10 0
8.46154 10 0
10 10 0

POINT_DATA 676
SCALARS h double 1
LOOkUP_TABLE default
0.0229672
0.0182523
0.0098979
0.0061818
0.00678632
0.00943818
0.0117863
0.0109929
0.00684737
0.00318189
0.00146012
0.00129113
0.00341702
0.00961315
0.0204602
0.0327632
0.040673
0.0400636
0.0321652
0.0218605
0.0134153
0.0086143
0.00799101
0.0134258
0.018751
0.0229672
0.0239799
0.0200591
0.00991753
0.00531922
0.00532613
0.00796839
0.0114802
0.0122378
0.00818409
0.00378541
0.00154927
0.000867368
0.00106977
0.00161464
0.0033946
0.00644148
0.00931673
0.0103084
0.00899181
0.00638611
0.00390088
0.00252993
0.00369468
0.00906455
0.0140376
0.0239799
0.0250202
0.0203551
0.00904766
0.00404283
0.00354424
0.00570453
0.00932405
0.0111456
0.00806781
0.00385006
0.0015211
0.000785271
0.000893315
0.000782767
0.00081393
0.00109965
0.00159811
0.00198207
0.00193826
0.00149386
0.000980734
0.00105444
0.00291507
0.00813511
0.0136337
0.0250202
0.0262872
0.0196455
0.00794757
0.00295298
0.00220077
0.00378311
0.00664249
0.0085287
0.00664572
0.00334021
0.00133311
0.000652741
0.000740262
0.000606674
0.000503529
0.000449812
0.000435487
0.00043866
0.000423479
0.000366072
0.000374762
0.000883163
0.00314881
0.00941887
0.0167665
0.0262872
0.0269088
0.0180995
0.00683116
0.00221053
0.00143744
0.0025227
0.00436553
0.00568733
0.0046907
0.00250359
0.00104072
0.000492304
0.000541276
0.000442113
0.000346645
0.000285985
0.000247561
0.000196321
0.000151553
0.000124692
0.000219747
0.001016
0.00401141
0.0123451
0.021353
0.0269088
0.0259582
0.0158045
0.0056918
0.00171377
0.00104092
0.00173018
0.00273755
0.00342947
0.00291891
0.00165076
0.00072646
0.000341431
0.000352788
0.000291963
0.000217032
0.000153954
0.000133467
0.000114034
7.63311e-005
0.000136832
8.41297e-005
0.00107184
0.00548379
0.0163041
0.0248387
0.0259582
0.0231819
0.0129762
0.00453202
0.00133955
0.000799437
0.00119041
0.00166048
0.00192717
0.00164432
0.00097394
0.000448048
0.000206658
0.000146078
0.00012278
0.000114278
7.16194e-005
6.79368e-005
8.89247e-005
4.08152e-005
0.000110774
0.000660488
0.00287249
0.00906377
0.0193379
0.0256354
0.0231819
0.0190827
0.00997699
0.00342426
0.00103096
0.000613994
0.000798344
0.000973669
0.00102421
0.000845665
0.000504031
0.000183585
7.88433e-005
4.84374e-005
3.23088e-005
2.77148e-005
2.38758e-005
2.65772e-005
6.46539e-005
0.000422606
0.00109063
0.00276525
0.00628592
0.0127467
0.0205935
0.0237132
0.0190827
0.0145306
0.00719914
0.00246725
0.000780374
0.000461958
0.000517289
0.000549349
0.000507781
0.000360893
0.000135729
9.58553e-005
6.25892e-005
-3.62894e-006
-2.35117e-005
3.16624e-005
9.41999e-005
0.000282097
0.000667382
0.00152675
0.00299983
0.00556584
0.00958249
0.0149872
0.0197336
0.0199245
0.0145306
0.0103371
0.00493073
0.00172894
0.000594268
0.000350341
0.000338628
0.00031713
0.000261731
0.000182515
0.000125092
0.000179086
0.000191575
0.000235993
0.000275416
0.000357892
0.000581606
0.00104173
0.00188548
0.00327724
0.00532811
0.00818462
0.0117267
0.0152978
0.0171847
0.0154183
0.0103371
0.00701495
0.00329215
0.00122349
0.000475497
0.00029213
0.000272876
0.000292988
0.000367499
0.000522044
0.000750042
0.00102756
0.00127693
0.00146607
0.00157667
0.00168145
0.00195251
0.00258171
0.00371831
0.00539447
0.00754554
0.0100213
0.0124329
0.0140578
0.0138567
0.0112074
0.00701495
0.00474684
0.00226351
0.000931332
0.000426863
0.000303651
0.000361094
0.000608628
0.00115148
0.00204102
0.00320067
0.00443755
0.0055024
0.00615068
0.00624631
0.00590229
0.00552483
0.00559591
0.00637759
0.00777265
0.00946386
0.0110671
0.0121302
0.0121489
0.0107185
0.00794795
0.00474684
0.00349639
0.00176407
0.000831003
0.000454225
0.000405539
0.000690047
0.00158493
0.00350267
0.00668457
0.0109333
0.0155446
0.0194567
0.0215646
0.021199
0.0186496
0.0152215
0.0124509
0.0111465
0.0111248
0.0116622
0.012044
0.0117791
0.0106066
0.00853457
0.00593977
0.00349639
0.00315631
0.0017195
0.000907219
0.000553739
0.000601399
0.00135536
0.00371789
0.00902008
0.0183095
0.031411
0.0463052
0.0593123
0.0662774
0.0645786
0.0550405
0.0419071
0.0300988
0.0222249
0.0180625
0.0159951
0.0144914
0.0127147
0.0104424
0.00783382
0.0052675
0.00315631
0.00362566
0.0020676
0.00113324
0.00069341
0.000827081
0.00228459
0.00721462
0.019154
0.0416964
0.0759101
0.117565
0.156371
0.179162
0.176698
0.150266
0.111809
0.0757111
0.049978
0.0347294
0.02625
0.0208901
0.0165763
0.0126089
0.00898896
0.00593573
0.00362566
0.00472471
0.00268276
0.00143412
0.000804186
0.000923162
0.00301807
0.0110929
0.0326747
0.0772623
0.151225
0.24949
0.349793
0.417722
0.424702
0.368301
0.27572
0.183786
0.115199
0.0727631
0.0487342
0.0346116
0.0250827
0.0178307
0.0121328
0.00780567
0.00472471
0.00598783
0.00327154
0.00165287
0.000802293
0.000728065
0.00282898
0.0129089
0.0434078
0.113181
0.24122
0.42958
0.64401
0.813903
0.866732
0.77936
0.598162
0.402136
0.247625
0.148185
0.0910217
0.0586691
0.0389998
0.0258661
0.0166664
0.0102668
0.00598783
0.00664917
0.00342463
0.0016088
0.000670993
0.000356515
0.00155939
0.010748
0.0434526
0.127314
0.298961
0.581397
0.943957
1.27998
1.44784
1.36852
1.09148
0.751205
0.463257
0.269233
0.155354
0.0920685
0.0561439
0.0344765
0.0207825
0.0120635
0.00664917
0.006129
0.0029234
0.0012555
0.000459188
0.000152239
0.000536949
0.00611093
0.0318036
0.107407
0.281102
0.60249
1.07046
1.57592
1.9173
1.92845
1.61668
1.15201
0.720864
0.413778
0.228501
0.126145
0.0707116
0.0399107
0.0222258
0.0119696
0.006129
0.0046729
0.00200426
0.000763992
0.000258489
0.000170062
0.000611227
0.00256952
0.0163346
0.0668141
0.198073
0.471282
0.923039
1.48899
1.96949
2.13203
1.89978
1.41705
0.910587
0.523989
0.282012
0.1476
0.0768953
0.0399515
0.0204074
0.0100462
0.0046729
0.00331523
0.00125722
0.000468192
0.000388281
0.000694324
0.000988654
0.00143265
0.00573285
0.0298977
0.104343
0.278242
0.603558
1.07336
1.55653
1.83215
1.75514
1.38723
0.928036
0.544435
0.291778
0.148569
0.0739156
0.0362471
0.0173259
0.00788139
0.00331523
0.00335646
0.00144148
0.000823894
0.00107357
0.00159338
0.00187234
0.00185119
0.00231415
0.0092068
0.0406715
0.124947
0.301883
0.593977
0.949743
1.22586
1.27647
1.08346
0.766873
0.468079
0.256611
0.131814
0.0657576
0.0324988
0.0158805
0.00751393
0.00335646
0.00632287
0.00364173
0.00235931
0.00245954
0.00326874
0.00374005
0.00345885
0.00272885
0.00295303
0.0110963
0.0423634
0.116585
0.255002
0.451189
0.64236
0.733586
0.676874
0.514938
0.333793
0.192573
0.104148
0.0558191
0.0310448
0.0181405
0.0107971
0.00632287
0.0129011
0.00859217
0.00526889
0.0044174
0.00548694
0.00659374
0.00644864
0.00493824
0.00309101
0.00289742
0.00999907
0.0340544
0.0850343
0.167736
0.264601
0.333309
0.336969
0.278297
0.193825
0.119278
0.0692694
0.0415991
0.028464
0.0224174
0.0178016
0.0129011
0.0197608
0.0142168
0.00824588
0.00593888
0.00698159
0.00901151
0.00981775
0.00808958
0.00482914
0.00244014
0.0021124
0.0066316
0.0208839
0.0479704
0.0851505
0.119133
0.132582
0.119276
0.089276
0.0581379
0.0353759
0.0227976
0.0186854
0.0206626
0.0224347
0.0197608
0.0229672
0.0182523
0.0098979
0.0061818
0.00678632
0.00943818
0.0117863
0.0109929
0.00684737
0.00318189
0.00146012
0.00129113
0.00341702
0.00961315
0.0204602
0.0327632
0.040673
0.0400636
0.0321652
0.0218605
0.0134153
0.0086143
0.00799101
0.0134258
0.018751
0.0229672

VECTORS u double
-11.2865 32.1632 0.0
-16.3757 34.5249 0.0
-20.2763 33.5535 0.0
-19.23 31.4078 0.0
-15.6743 29.8843 0.0
-14.0019 29.6345 0.0
-13.4001 29.9085 0.0
-13.7123 30.5603 0.0
-14.2271 31.2039 0.0
-13.1454 31.0809 0.0
-9.47668 29.8142 0.0
-18.0924 34.3006 0.0
-49.8306 47.9365 0.0
-69.9226 54.683 0.0
-79.955 56.595 0.0
-86.1059 56.6224 0.0
-90.178 55.6547 0.0
-92.1622 53.8642 0.0
-91.3471 51.1995 0.0
-86.3813 47.4633 0.0
-74.7202 42.2432 0.0
-52.8507 35.1501 0.0
-24.681 27.9217 0.0
-9.28946 24.9053 0.0
-10.5627 26.956 0.0
-11.2865 32.1632 0.0
-6.79715 34.0038 0.0
-12.7035 37.101 0.0
-17.2155 35.7859 0.0
-17.5784 32.6431 0.0
-13.9419 30.1665 0.0
-11.9476 29.8196 0.0
-11.3632 30.2245 0.0
-11.9005 31.1014 0.0
-12.6952 32.0122 0.0
-11.8214 32.2122 0.0
-7.32353 30.8419 0.0
1.05002 27.7946 0.0
-1.77609 29.9655 0.0
-23.8911 38.3575 0.0
-52.1177 47.3705 0.0
-68.63 51.1807 0.0
-77.0636 51.8347 0.0
-80.7458 50.821 0.0
-80.3935 48.6017 0.0
-75.0063 45.0938 0.0
-60.9518 39.5824 0.0
-30.6998 30.7696 0.0
0.582422 23.6907 0.0
3.34779 23.8508 0.0
-3.52548 27.1922 0.0
-6.79715 34.0038 0.0
-7.06604 36.5871 0.0
-12.5518 39.2911 0.0
-16.5766 37.9552 0.0
-17.084 33.8955 0.0
-12.77 30.0594 0.0
-10.5697 29.7302 0.0
-10.1701 30.2906 0.0
-10.8934 31.3198 0.0
-11.8009 32.4017 0.0
-10.9854 32.8193 0.0
-6.40297 31.6535 0.0
3.01864 28.139 0.0
5.00494 28.2712 0.0
7.23338 27.9454 0.0
0.670034 30.2964 0.0
-19.5591 36.3132 0.0
-39.7626 41.3185 0.0
-51.3182 43.1229 0.0
-54.6669 42.3865 0.0
-50.3568 39.631 0.0
-32.8414 33.7536 0.0
3.91076 24.3227 0.0
10.0923 23.7153 0.0
3.52828 26.6235 0.0
-4.23321 31.5665 0.0
-7.06604 36.5871 0.0
-9.92693 39.2755 0.0
-14.5886 41.3372 0.0
-18.0429 40.1223 0.0
-18.1696 35.4255 0.0
-12.5304 29.9546 0.0
-10.326 29.8878 0.0
-10.0281 30.5168 0.0
-10.6828 31.5394 0.0
-11.4945 32.6711 0.0
-10.6039 33.199 0.0
-5.9992 32.1891 0.0
3.3575 28.6882 0.0
5.23268 28.6991 0.0
9.14705 27.7459 0.0
12.484 26.8286 0.0
13.6001 26.3942 0.0
9.69289 27.228 0.0
1.87681 28.8538 0.0
-3.34295 29.4529 0.0
-1.15015 28.1131 0.0
12.5465 23.816 0.0
15.1151 23.2613 0.0
6.71816 26.7718 0.0
-1.42468 31.1647 0.0
-7.93678 36.4341 0.0
-9.92693 39.2755 0.0
-14.014 41.7894 0.0
-17.9794 43.2771 0.0
-21.125 42.1812 0.0
-20.9582 37.1883 0.0
-13.9773 30.4371 0.0
-11.746 30.6836 0.0
-11.0905 31.1308 0.0
-11.28 31.9405 0.0
-11.7663 32.9839 0.0
-10.7002 33.5199 0.0
-6.1542 32.5979 0.0
2.63797 29.3263 0.0
4.79831 29.1136 0.0
8.89198 27.9194 0.0
12.266 27.1801 0.0
16.0964 25.4668 0.0
19.1682 23.9636 0.0
20.8689 23.1996 0.0
22.6106 22.1266 0.0
26.3891 20.5943 0.0
26.9479 18.3047 0.0
13.9969 23.4639 0.0
2.97251 29.3914 0.0
-6.24965 35.4053 0.0
-12.1293 40.1282 0.0
-14.014 41.7894 0.0
-18.6839 44.093 0.0
-22.2101 45.1092 0.0
-25.2651 44.0405 0.0
-25.0151 38.9647 0.0
-17.3537 31.8829 0.0
-14.748 32.1143 0.0
-13.3124 32.1747 0.0
-12.7172 32.6202 0.0
-12.6727 33.4474 0.0
-11.3622 33.897 0.0
-6.9833 33.0071 0.0
0.794158 30.0877 0.0
4.93205 28.0764 0.0
9.51589 26.0482 0.0
12.0536 26.3059 0.0
16.8761 23.3036 0.0
22.3967 20.1187 0.0
22.0122 21.8948 0.0
25.3486 21.3109 0.0
26.1817 21.0461 0.0
-5.9504 41.519 0.0
21.9916 18.4936 0.0
0.287069 31.518 0.0
-12.2871 39.7761 0.0
-16.8075 43.1361 0.0
-18.6839 44.093 0.0
-23.7047 46.2275 0.0
-26.9913 46.8479 0.0
-30.0574 45.7092 0.0
-29.8012 40.6696 0.0
-22.084 34.0515 0.0
-18.8587 33.9503 0.0
-16.5483 33.5902 0.0
-15.0467 33.6205 0.0
-14.3212 34.1316 0.0
-12.69 34.3765 0.0
-8.32852 33.1682 0.0
1.56523 27.0045 0.0
8.77443 21.4702 0.0
17.5569 14.7183 0.0
17.7464 17.2459 0.0
21.5707 14.6114 0.0
20.0488 19.9376 0.0
16.9652 25.8682 0.0
-29.9911 53.9425 0.0
77.5733 -9.77078 0.0
1.93336 31.3623 0.0
-11.3951 38.415 0.0
-15.3275 41.1607 0.0
-19.371 44.0423 0.0
-21.9431 45.7943 0.0
-23.7047 46.2275 0.0
-29.0499 48.2603 0.0
-32.2319 48.5412 0.0
-35.3781 47.2864 0.0
-35.1921 42.4449 0.0
-27.791 36.6486 0.0
-23.8429 36.0699 0.0
-20.7201 35.3289 0.0
-18.2964 34.9311 0.0
-16.6932 34.9541 0.0
-13.9347 33.9948 0.0
-10.1262 33.4152 0.0
5.52444 16.8891 0.0
24.3397 -1.87331 0.0
23.7142 0.46524 0.0
28.0578 0.921448 0.0
68.2978 -24.8611 0.0
36.7155 8.37201 0.0
59.6454 -1.75402 0.0
-22.9632 45.2486 0.0
-27.9186 47.4287 0.0
-27.1041 47.1173 0.0
-26.1275 46.8131 0.0
-25.4752 46.8464 0.0
-26.1853 47.5751 0.0
-27.441 48.2296 0.0
-29.0499 48.2603 0.0
-34.8629 50.2876 0.0
-38.077 50.2864 0.0
-41.4501 48.9507 0.0
-41.5684 44.5789 0.0
-34.7116 39.7181 0.0
-29.9036 38.6164 0.0
-25.9073 37.495 0.0
-22.2551 36.4091 0.0
-18.415 34.4332 0.0
6.98599 6.28176 0.0
-4.41837 25.4336 0.0
-16.54 43.1449 0.0
-493.427 489.033 0.0
-137.512 146.144 0.0
10.317 28.8634 0.0
-24.4642 52.2337 0.0
-35.8152 55.0557 0.0
-40.8085 55.6857 0.0
-41.0569 54.8558 0.0
-39.6437 53.7028 0.0
-37.2718 52.4582 0.0
-35.0431 51.4401 0.0
-33.3729 50.7745 0.0
-32.8383 50.5928 0.0
-33.3602 50.5607 0.0
-34.8629 50.2876 0.0
-41.5323 52.4588 0.0
-45.0005 52.2554 0.0
-48.8855 50.9676 0.0
-49.5904 47.4191 0.0
-43.3468 43.7102 0.0
-37.5927 42.4826 0.0
-32.6291 41.4754 0.0
-27.3889 39.9096 0.0
-21.913 38.2319 0.0
-25.4602 49.6629 0.0
-40.2071 70.448 0.0
-46.0594 79.1112 0.0
-48.5102 80.6518 0.0
-49.0839 78.3068 0.0
-49.461 73.1689 0.0
-51.1324 68.3658 0.0
-52.1883 64.5148 0.0
-52.1452 61.9305 0.0
-50.5722 59.8219 0.0
-48.163 58.0159 0.0
-45.402 56.4339 0.0
-42.8297 55.1081 0.0
-40.8117 54.0835 0.0
-39.7902 53.4128 0.0
-39.9892 52.9454 0.0
-41.5323 52.4588 0.0
-49.8115 55.0036 0.0
-53.8481 54.7027 0.0
-58.4328 53.6327 0.0
-59.3741 51.2459 0.0
-53.3037 49.6899 0.0
-47.4518 51.4745 0.0
-45.1729 57.5058 0.0
-48.0115 68.4022 0.0
-53.7764 79.6867 0.0
-58.2666 86.8993 0.0
-60.1444 89.6173 0.0
-61.2103 90.3144 0.0
-61.8639 89.1274 0.0
-62.9749 86.5678 0.0
-63.9009 82.046 0.0
-64.0737 76.2462 0.0
-63.3801 70.9249 0.0
-61.8269 67.0542 0.0
-59.4841 64.2567 0.0
-56.6437 62.0473 0.0
-53.6801 60.1946 0.0
-50.9759 58.6261 0.0
-48.8617 57.3392 0.0
-47.7336 56.3552 0.0
-47.9562 55.6111 0.0
-49.8115 55.0036 0.0
-60.7477 58.2041 0.0
-65.4168 57.8602 0.0
-69.9693 57.0406 0.0
-69.3531 56.0526 0.0
-62.0231 58.4926 0.0
-57.088 67.0115 0.0
-57.9823 77.6823 0.0
-61.1063 85.5393 0.0
-63.8651 90.2484 0.0
-65.814 92.9112 0.0
-67.2058 94.1912 0.0
-68.5873 94.4821 0.0
-70.407 93.817 0.0
-72.7837 91.9943 0.0
-75.1016 88.5809 0.0
-76.1737 83.4578 0.0
-75.2109 77.5922 0.0
-72.7307 72.631 0.0
-69.6622 69.069 0.0
-66.4443 66.4218 0.0
-63.341 64.2817 0.0
-60.632 62.4796 0.0
-58.6191 60.9734 0.0
-57.6889 59.771 0.0
-58.2824 58.8588 0.0
-60.7477 58.2041 0.0
-74.6449 62.1139 0.0
-78.8925 61.5481 0.0
-81.2691 60.6945 0.0
-76.9538 60.99 0.0
-66.9708 67.4584 0.0
-62.6532 78.2646 0.0
-64.0818 85.9642 0.0
-66.5088 90.5174 0.0
-68.6861 93.4564 0.0
-70.5683 95.4688 0.0
-72.3932 96.7784 0.0
-74.5369 97.4275 0.0
-77.3717 97.3386 0.0
-80.9881 96.3111 0.0
-84.8697 94.0237 0.0
-87.767 90.1525 0.0
-88.2044 84.8395 0.0
-85.9061 79.2779 0.0
-82.3111 74.8191 0.0
-78.7081 71.5794 0.0
-75.516 69.0821 0.0
-72.9291 67.027 0.0
-71.2011 65.3141 0.0
-70.6887 63.9321 0.0
-71.7905 62.8772 0.0
-74.6449 62.1139 0.0
-88.7126 65.8862 0.0
-90.6191 64.7492 0.0
-89.5317 63.5122 0.0
-81.6293 64.4565 0.0
-69.0809 73.0113 0.0
-65.5558 82.9639 0.0
-67.4553 88.59 0.0
-69.9183 92.1125 0.0
-72.2296 94.7411 0.0
-74.4332 96.8067 0.0
-76.7484 98.37 0.0
-79.5144 99.3963 0.0
-83.0855 99.7871 0.0
-87.5945 99.3852 0.0
-92.6673 97.9734 0.0
-97.2733 95.2874 0.0
-99.9212 91.1737 0.0
-99.5207 86.0633 0.0
-96.6616 81.1467 0.0
-93.1169 77.2756 0.0
-89.9873 74.3382 0.0
-87.6035 71.9828 0.0
-86.1507 70.0236 0.0
-85.8442 68.3944 0.0
-86.8136 67.0467 0.0
-88.7126 65.8862 0.0
-98.4246 67.9534 0.0
-97.7908 66.2965 0.0
-94.6035 64.7065 0.0
-84.9731 65.5096 0.0
-70.1407 74.6531 0.0
-67.2393 83.8435 0.0
-69.679 88.6819 0.0
-72.4092 91.9995 0.0
-75.0098 94.6951 0.0
-77.5782 96.9523 0.0
-80.3227 98.7833 0.0
-83.5523 100.132 0.0
-87.5989 100.892 0.0
-92.616 100.924 0.0
-98.332 100.07 0.0
-103.926 98.1527 0.0
-108.159 95.0118 0.0
-109.844 90.7387 0.0
-108.752 86.0086 0.0
-106.079 81.7747 0.0
-103.276 78.4024 0.0
-101.017 75.6962 0.0
-99.4836 73.417 0.0
-98.6992 71.4282 0.0
-98.5211 69.636 0.0
-98.4246 67.9534 0.0
-103.32 67.5642 0.0
-101.383 65.7553 0.0
-97.7317 64.0311 0.0
-88.2476 64.0583 0.0
-70.7878 72.8751 0.0
-67.9215 82.1637 0.0
-71.0166 86.8949 0.0
-74.1163 90.3193 0.0
-77.0442 93.188 0.0