# vtk DataFile Version 2.0
Particulate Flow Equations Solution
ASCII
DATASET STRUCTURED_GRID
DIMENSIONS 26 26 1
POINTS 676 double
-10 -10 0
-9.23077 -10 0
-8.46154 -10 0
-7.69231 -10 0
-6.92308 -10 0
-6.15385 -10 0
-5.38462 -10 0
-4.61538 -10 0
-3.84615 -10 0
-3.07692 -10 0
-2.30769 -10 0
-1.53846 -10 0
-0.769231 -10 0
5.55112e-016 -10 0
0.769231 -10 0
1.53846 -10 0
2.30769 -10 0
3.07692 -10 0
3.84615 -10 0
4.61538 -10 0
5.38462 -10 0
6.15385 -10 0
6.92308 -10 0
7.69231 -10 0
8.46154 -10 0
10 -10 0
-10 -9.23077 0
-9.23077 -9.23077 0
-8.46154 -9.23077 0
-7.69231 -9.23077 0
-6.92308 -9.23077 0
-6.15385 -9.23077 0
-5.38462 -9.23077 0
-4.61538 -9.23077 0
-3.84615 -9.23077 0
-3.07692 -9.23077 0
-2.30769 -9.23077 0
-1.53846 -9.23077 0
-0.769231 -9.23077 0
5.55112e-016 -9.23077 0
0.769231 -9.23077 0
1.53846 -9.23077 0
2.30769 -9.23077 0
3.07692 -9.23077 0
3.84615 -9.23077 0
4.61538 -9.23077 0
5.38462 -9.23077 0
6.15385 -9.23077 0
6.92308 -9.23077 0
7.69231 -9.23077 0
8.46154 -9.23077 0
10 -9.23077 0
-10 -8.46154 0
-9.23077 -8.46154 0
-8.46154 -8.46154 0
-7.69231 -8.46154 0
-6.92308 -8.46154 0
-6.15385 -8.46154 0
-5.38462 -8.46154 0
-4.61538 -8.46154 0
-3.84615 -8.46154 0
-3.07692 -8.46154 0
-2.30769 -8.46154 0
-1.53846 -8.46154 0
-0.769231 -8.46154 0
5.55112e-016 -8.46154 0
0.769231 -8.46154 0
1.53846 -8.46154 0
2.30769 -8.46154 0
3.07692 -8.46154 0
3.84615 -8.46154 0
4.61538 -8.46154 0
5.38462 -8.46154 0
6.15385 -8.46154 0
6.92308 -8.46154 0
7.69231 -8.46154 0
8.46154 -8.46154 0
10 -8.46154 0
-10 -7.69231 0
-9.23077 -7.69231 0
-8.46154 -7.69231 0
-7.69231 -7.69231 0
-6.92308 -7.69231 0
-6.15385 -7.69231 0
-5.38462 -7.69231 0
-4.61538 -7.69231 0
-3.84615 -7.69231 0
-3.07692 -7.69231 0
-2.30769 -7.69231 0
-1.53846 -7.69231 0
-0.769231 -7.69231 0
5.55112e-016 -7.69231 0
0.769231 -7.69231 0
1.53846 -7.69231 0
2.30769 -7.69231 0
3.07692 -7.69231 0
3.84615 -7.69231 0
4.61538 -7.69231 0
5.38462 -7.69231 0
6.15385 -7.69231 0
6.92308 -7.69231 0
7.69231 -7.69231 0
8.46154 -7.69231 0
10 -7.69231 0
-10 -6.92308 0
-9.23077 -6.92308 0
-8.46154 -6.92308 0
-7.69231 -6.92308 0
-6.92308 -6.92308 0
-6.15385 -6.92308 0
-5.38462 -6.92308 0
-4.61538 -6.92308 0
-3.84615 -6.92308 0
-3.07692 -6.92308 0
-2.30769 -6.92308 0
-1.53846 -6.92308 0
-0.769231 -6.92308 0
5.55112e-016 -6.92308 0
0.769231 -6.92308 0
1.53846 -6.92308 0
2.30769 -6.92308 0
3.07692 -6.92308 0
3.84615 -6.92308 0
4.61538 -6.92308 0
5.38462 -6.92308 0
6.15385 -6.92308 0
6.92308 -6.92308 0
7.69231 -6.92308 0
8.46154 -6.92308 0
10 -6.92308 0
-10 -6.15385 0
-9.23077 -6.15385 0
-8.46154 -6.15385 0
-7.69231 -6.15385 0
-6.92308 -6.15385 0
-6.15385 -6.15385 0
-5.38462 -6.15385 0
-4.61538 -6.15385 0
-3.84615 -6.15385 0
-3.07692 -6.15385 0
-2.30769 -6.15385 0
-1.53846 -6.15385 0
-0.769231 -6.15385 0
5.55112e-016 -6.15385 0
0.769231 -6.15385 0
1.53846 -6.15385 0
2.30769 -6.15385 0
3.07692 -6.15385 0
3.84615 -6.15385 0
4.61538 -6.15385 0
5.38462 -6.15385 0
6.15385 -6.15385 0
6.92308 -6.15385 0
7.69231 -6.15385 0
8.46154 -6.15385 0
10 -6.15385 0
-10 -5.38462 0
-9.23077 -5.38462 0
-8.46154 -5.38462 0
-7.69231 -5.38462 0
-6.92308 -5.38462 0
-6.15385 -5.38462 0
-5.38462 -5.38462 0
-4.61538 -5.38462 0
-3.84615 -5.38462 0
-3.07692 -5.38462 0
-2.30769 -5.38462 0
-1.53846 -5.38462 0
-0.769231 -5.38462 0
5.55112e-016 -5.38462 0
0.769231 -5.38462 0
1.53846 -5.38462 0
2.30769 -5.38462 0
3.07692 -5.38462 0
3.84615 -5.38462 0
4.61538 -5.38462 0
5.38462 -5.38462 0
6.15385 -5.38462 0
6.92308 -5.38462 0
7.69231 -5.38462 0
8.46154 -5.38462 0
10 -5.38462 0
-10 -4.61538 0
-9.23077 -4.61538 0
-8.46154 -4.61538 0
-7.69231 -4.61538 0
-6.92308 -4.61538 0
-6.15385 -4.61538 0
-5.38462 -4.61538 0
-4.61538 -4.61538 0
-3.84615 -4.61538 0
-3.07692 -4.61538 0
-2.30769 -4.61538 0
-1.53846 -4.61538 0
-0.769231 -4.61538 0
5.55112e-016 -4.61538 0
0.769231 -4.61538 0
1.53846 -4.61538 0
2.30769 -4.61538 0
3.07692 -4.61538 0
3.84615 -4.61538 0
4.61538 -4.61538 0
5.38462 -4.61538 0
6.15385 -4.61538 0
6.92308 -4.61538 0
7.69231 -4.61538 0
8.46154 -4.61538 0
10 -4.61538 0
-10 -3.84615 0
-9.23077 -3.84615 0
-8.46154 -3.84615 0
-7.69231 -3.84615 0
-6.92308 -3.84615 0
-6.15385 -3.84615 0
-5.38462 -3.84615 0
-4.61538 -3.84615 0
-3.84615 -3.84615 0
-3.07692 -3.84615 0
-2.30769 -3.84615 0
-1.53846 -3.84615 0
-0.769231 -3.84615 0
5.55112e-016 -3.84615 0
0.769231 -3.84615 0
1.53846 -3.84615 0
2.30769 -3.84615 0
3.07692 -3.84615 0
3.84615 -3.84615 0
4.61538 -3.84615 0
5.38462 -3.84615 0
6.15385 -3.84615 0
6.92308 -3.84615 0
7.69231 -3.84615 0
8.46154 -3.84615 0
10 -3.84615 0
-10 -3.07692 0
-9.23077 -3.07692 0
-8.46154 -3.07692 0
-7.69231 -3.07692 0
-6.92308 -3.07692 0
-6.15385 -3.07692 0
-5.38462 -3.07692 0
-4.61538 -3.07692 0
-3.84615 -3.07692 0
-3.07692 -3.07692 0
-2.30769 -3.07692 0
-1.53846 -3.07692 0
-0.769231 -3.07692 0
5.55112e-016 -3.07692 0
0.769231 -3.07692 0
1.53846 -3.07692 0
2.30769 -3.07692 0
3.07692 -3.07692 0
3.84615 -3.07692 0
4.61538 -3.07692 0
5.38462 -3.07692 0
6.15385 -3.07692 0
6.92308 -3.07692 0
7.69231 -3.07692 0
8.46154 -3.07692 0
10 -3.07692 0
-10 -2.30769 0
-9.23077 -2.30769 0
-8.46154 -2.30769 0
-7.69231 -2.30769 0
-6.92308 -2.30769 0
-6.15385 -2.30769 0
-5.38462 -2.30769 0
-4.61538 -2.30769 0
-3.84615 -2.30769 0
-3.07692 -2.30769 0
-2.30769 -2.30769 0
-1.53846 -2.30769 0
-0.769231 -2.30769 0
5.55112e-016 -2.30769 0
0.769231 -2.30769 0
1.53846 -2.30769 0
2.30769 -2.30769 0
3.07692 -2.30769 0
3.84615 -2.30769 0
4.61538 -2.30769 0
5.38462 -2.30769 0
6.15385 -2.30769 0
6.92308 -2.30769 0
7.69231 -2.30769 0
8.46154 -2.30769 0
10 -2.30769 0
-10 -1.53846 0
-9.23077 -1.53846 0
-8.46154 -1.53846 0
-7.69231 -1.53846 0
-6.92308 -1.53846 0
-6.15385 -1.53846 0
-5.38462 -1.53846 0
-4.61538 -1.53846 0
-3.84615 -1.53846 0
-3.07692 -1.53846 0
-2.30769 -1.53846 0
-1.53846 -1.53846 0
-0.769231 -1.53846 0
5.55112e-016 -1.53846 0
0.769231 -1.53846 0
1.53846 -1.53846 0
2.30769 -1.53846 0
3.07692 -1.53846 0
3.84615 -1.53846 0
4.61538 -1.53846 0
5.38462 -1.53846 0
6.15385 -1.53846 0
6.92308 -1.53846 0
7.69231 -1.53846 0
8.46154 -1.53846 0
10 -1.53846 0
-10 -0.769231 0
-9.23077 -0.769231 0
-8.46154 -0.769231 0
-7.69231 -0.769231 0
-6.92308 -0.769231 0
-6.15385 -0.769231 0
-5.38462 -0.769231 0
-4.61538 -0.769231 0
-3.84615 -0.769231 0
-3.07692 -0.769231 0
-2.30769 -0.769231 0
-1.53846 -0.769231 0
-0.769231 -0.769231 0
5.55112e-016 -0.769231 0
0.769231 -0.769231 0
1.53846 -0.769231 0
2.30769 -0.769231 0
3.07692 -0.769231 0
3.84615 -0.769231 0
4.61538 -0.769231 0
5.38462 -0.769231 0
6.15385 -0.769231 0
6.92308 -0.769231 0
7.69231 -0.769231 0
8.46154 -0.769231 0
10 -0.769231 0
-10 5.55112e-016 0
-9.23077 5.55112e-016 0
-8.46154 5.55112e-016 0
-7.69231 5.55112e-016 0
-6.92308 5.55112e-016 0
-6.15385 5.55112e-016 0
-5.38462 5.55112e-016 0
-4.61538 5.55112e-016 0
-3.84615 5.55112e-016 0
-3.07692 5.55112e-016 0
-2.30769 5.55112e-016 0
-1.53846 5.55112e-016 0
-0.769231 5.55112e-016 0
5.55112e-016 5.55112e-016 0
0.769231 5.55112e-016 0
1.53846 5.55112e-016 0
2.30769 5.55112e-016 0
3.07692 5.55112e-016 0
3.84615 5.55112e-016 0
4.61538 5.55112e-016 0
5.38462 5.55112e-016 0
6.15385 5.55112e-016 0
6.92308 5.55112e-016 0
7.69231 5.55112e-016 0
8.46154 5.55112e-016 0
10 5.55112e-016 0
-10 0.769231 0
-9.23077 0.769231 0
-8.46154 0.769231 0
-7.69231 0.769231 0
-6.92308 0.769231 0
-6.15385 0.769231 0
-5.38462 0.769231 0
-4.61538 0.769231 0
-3.84615 0.769231 0
-3.07692 0.769231 0
-2.30769 0.769231 0
-1.53846 0.769231 0
-0.769231 0.769231 0
5.55112e-016 0.769231 0
0.769231 0.769231 0
1.53846 0.769231 0
2.30769 0.769231 0
3.07692 0.769231 0
3.84615 0.769231 0
4.61538 0.769231 0
5.38462 0.769231 0
6.15385 0.769231 0
6.92308 0.769231 0
7.69231 0.769231 0
8.46154 0.769231 0
10 0.769231 0
-10 1.53846 0
-9.23077 1.53846 0
-8.46154 1.53846 0
-7.69231 1.53846 0
-6.92308 1.53846 0
-6.15385 1.53846 0
-5.38462 1.53846 0
-4.61538 1.53846 0
-3.84615 1.53846 0
-3.07692 1.53846 0
-2.30769 1.53846 0
-1.53846 1.53846 0
-0.769231 1.53846 0
5.55112e-016 1.53846 0
0.769231 1.53846 0
1.53846 1.53846 0
2.30769 1.53846 0
3.07692 1.53846 0
3.84615 1.53846 0
4.61538 1.53846 0
5.38462 1.53846 0
6.15385 1.53846 0
6.92308 1.53846 0
7.69231 1.53846 0
8.46154 1.53846 0
10 1.53846 0
-10 2.30769 0
-9.23077 2.30769 0
-8.46154 2.30769 0
-7.69231 2.30769 0
-6.92308 2.30769 0
-6.15385 2.30769 0
-5.38462 2.30769 0
-4.61538 2.30769 0
-3.84615 2.30769 0
-3.07692 2.30769 0
-2.30769 2.30769 0
-1.53846 2.30769 0
-0.769231 2.30769 0
5.55112e-016 2.30769 0
0.769231 2.30769 0
1.53846 2.30769 0
2.30769 2.30769 0
3.07692 2.30769 0
3.84615 2.30769 0
4.61538 2.30769 0
5.38462 2.30769 0
6.15385 2.30769 0
6.92308 2.30769 0
7.69231 2.30769 0
8.46154 2.30769 0
10 2.30769 0
-10 3.07692 0
-9.23077 3.07692 0
-8.46154 3.07692 0
-7.69231 3.07692 0
-6.92308 3.07692 0
-6.15385 3.07692 0
-5.38462 3.07692 0
-4.61538 3.07692 0
-3.84615 3.07692 0
-3.07692 3.07692 0
-2.30769 3.07692 0
-1.53846 3.07692 0
-0.769231 3.07692 0
5.55112e-016 3.07692 0
0.769231 3.07692 0
1.53846 3.07692 0
2.30769 3.07692 0
3.07692 3.07692 0
3.84615 3.07692 0
4.61538 3.07692 0
5.38462 3.07692 0
6.15385 3.07692 0
6.92308 3.07692 0
7.69231 3.07692 0
8.46154 3.07692 0
10 3.07692 0
-10 3.84615 0
-9.23077 3.84615 0
-8.46154 3.84615 0
-7.69231 3.84615 0
-6.92308 3.84615 0
-6.15385 3.84615 0
-5.38462 3.84615 0
-4.61538 3.84615 0
-3.84615 3.84615 0
-3.07692 3.84615 0
-2.30769 3.84615 0
-1.53846 3.84615 0
-0.769231 3.84615 0
5.55112e-016 3.84615 0
0.769231 3.84615 0
1.53846 3.84615 0
2.30769 3.84615 0
3.07692 3.84615 0
3.84615 3.84615 0
4.61538 3.84615 0
5.38462 3.84615 0
6.15385 3.84615 0
6.92308 3.84615 0
7.69231 3.84615 0
8.46154 3.84615 0
10 3.84615 0
-10 4.61538 0
-9.23077 4.61538 0
-8.46154 4.61538 0
-7.69231 4.61538 0
-6.92308 4.61538 0
-6.15385 4.61538 0
-5.38462 4.61538 0
-4.61538 4.61538 0
-3.84615 4.61538 0
-3.07692 4.61538 0
-2.30769 4.61538 0
-1.53846 4.61538 0
-0.769231 4.61538 0
5.55112e-016 4.61538 0
0.769231 4.61538 0
1.53846 4.61538 0
2.30769 4.61538 0
3.07692 4.61538 0
3.84615 4.61538 0
4.61538 4.61538 0
5.38462 4.61538 0
6.15385 4.61538 0
6.92308 4.61538 0
7.69231 4.61538 0
8.46154 4.61538 0
10 4.61538 0
-10 5.38462 0
-9.23077 5.38462 0
-8.46154 5.38462 0
-7.69231 5.38462 0
-6.92308 5.38462 0
-6.15385 5.38462 0
-5.38462 5.38462 0
-4.61538 5.38462 0
-3.84615 5.38462 0
-3.07692 5.38462 0
-2.30769 5.38462 0
-1.53846 5.38462 0
-0.769231 5.38462 0
5.55112e-016 5.38462 0
0.769231 5.38462 0
1.53846 5.38462 0
2.30769 5.38462 0
3.07692 5.38462 0
3.84615 5.38462 0
4.61538 5.38462 0
5.38462 5.38462 0
6.15385 5.38462 0
6.92308 5.38462 0
7.69231 5.38462 0
8.46154 5.38462 0
10 5.38462 0
-10 6.15385 0
-9.23077 6.15385 0
-8.46154 6.15385 0
-7.69231 6.15385 0
-6.92308 6.15385 0
-6.15385 6.15385 0
-5.38462 6.15385 0
-4.61538 6.15385 0
-3.84615 6.15385 0
-3.07692 6.15385 0
-2.30769 6.15385 0
-1.53846 6.15385 0
-0.769231 6.15385 0
5.55112e-016 6.15385 0
0.769231 6.15385 0
1.53846 6.15385 0
2.30769 6.15385 0
3.07692 6.15385 0
3.84615 6.15385 0
4.61538 6.15385 0
5.38462 6.15385 0
6.15385 6.15385 0
6.92308 6.15385 0
7.69231 6.15385 0
8.46154 6.15385 0
10 6.15385 0
-10 6.92308 0
-9.23077 6.92308 0
-8.46154 6.92308 0
-7.69231 6.92308 0
-6.92308 6.92308 0
-6.15385 6.92308 0
-5.38462 6.92308 0
-4.61538 6.92308 0
-3.84615 6.92308 0
-3.07692 6.92308 0
-2.30769 6.92308 0
-1.53846 6.92308 0
-0.769231 6.92308 0
5.55112e-016 6.92308 0
0.769231 6.92308 0
1.53846 6.92308 0
2.30769 6.92308 0
3.07692 6.92308 0
3.84615 6.92308 0
4.61538 6.92308 0
5.38462 6.92308 0
6.15385 6.92308 0
6.92308 6.92308 0
7.69231 6.92308 0
8.46154 6.92308 0
10 6.92308 0
-10 7.69231 0
-9.23077 7.69231 0
-8.46154 7.69231 0
-7.69231 7.69231 0
-6.92308 7.69231 0
-6.15385 7.69231 0
-5.38462 7.69231 0
-4.61538 7.69231 0
-3.84615 7.69231 0
-3.07692 7.69231 0
-2.30769 7.69231 0
-1.53846 7.69231 0
-0.769231 7.69231 0
5.55112e-016 7.69231 0
0.769231 7.69231 0
1.53846 7.69231 0
2.30769 7.69231 0
3.07692 7.69231 0
3.84615 7.69231 0
4.61538 7.69231 0
5.38462 7.69231 0
6.15385 7.69231 0
6.92308 7.69231 0
7.69231 7.69231 0
8.46154 7.69231 0
10 7.69231 0
-10 8.46154 0
-9.23077 8.46154 0
-8.46154 8.46154 0
-7.69231 8.46154 0
-6.92308 8.46154 0
-6.15385 8.46154 0
-5.38462 8.46154 0
-4.61538 8.46154 0
-3.84615 8.46154 0
-3.07692 8.46154 0
-2.30769 8.46154 0
-1.53846 8.46154 0
-0.769231 8.46154 0
5.55112e-016 8.46154 0
0.769231 8.46154 0
1.53846 8.46154 0
2.30769 8.46154 0
3.07692 8.46154 0
3.84615 8.46154 0
4.61538 8.46154 0
5.38462 8.46154 0
6.15385 8.46154 0
6.92308 8.46154 0
7.69231 8.46154 0
8.46154 8.46154 0
10 8.46154 0
-10 10 0
-9.23077 10 0
-8.46154 10 0
-7.69231 10 0
-6.92308 10 0
-6.15385 10 0
-5.38462 10 0
-4.61538 10 0
-3.84615 10 0
-3.07692 10 0
-2.30769 10 0
-1.53846 10 0
-0.769231 10 0
5.55112e-016 10 0
0.769231 10 0
1.53846 10 0
2.30769 10 0
3.07692 10 0
3.84615 10 0
4.61538 10 0
5.38462 10 0
6.15385 10 0
6.92308 10 0
7.69231 10 0
8.46154 10 0
10 10 0

POINT_DATA 676
SCALARS h double 1
LOOkUP_TABLE default
0.0586645
0.0420498
0.0304136
0.0224675
0.017379
0.0148699
0.0153394
0.0201559
0.031946
0.0544413
0.0914537
0.144964
0.212885
0.287672
0.35712
0.407748
0.429508
0.419383
0.381969
0.326984
0.265391
0.206164
0.154793
0.113417
0.0818414
0.0586645
0.0662953
0.0469004
0.033337
0.0239789
0.0177119
0.0139233
0.0125404
0.0142505
0.0208617
0.035537
0.0623883
0.105098
0.164706
0.237332
0.313246
0.37863
0.419956
0.429039
0.40595
0.358262
0.297414
0.234483
0.177374
0.130088
0.0934177
0.0662953
0.0735094
0.051618
0.0362789
0.0256481
0.0184052
0.0136897
0.0110763
0.0106971
0.0135205
0.0217341
0.0388476
0.0690085
0.115343
0.177601
0.250095
0.321492
0.377574
0.406248
0.402259
0.368875
0.315764
0.254693
0.195591
0.144575
0.103975
0.0735094
0.079627
0.0558394
0.0390271
0.0273184
0.0192857
0.0139073
0.0105277
0.00890412
0.00935886
0.0130991
0.0225637
0.0413422
0.0732495
0.120502
0.181426
0.248879
0.310904
0.354274
0.369527
0.354702
0.315568
0.262514
0.206278
0.154827
0.112293
0.079627
0.0839175
0.059137
0.0413441
0.0288435
0.0202182
0.0143758
0.0105336
0.00823227
0.00739271
0.00849613
0.0129108
0.0231495
0.0426001
0.074435
0.119769
0.175653
0.234154
0.283823
0.313572
0.317111
0.295342
0.255348
0.206932
0.158952
0.117151
0.0839175
0.0856328
0.0610509
0.0429664
0.0300724
0.0210941
0.0149632
0.0108554
0.00820837
0.00673393
0.00648848
0.00806616
0.0128945
0.0233723
0.0424478
0.0724616
0.113441
0.161546
0.20886
0.245395
0.262805
0.257811
0.233275
0.196434
0.15563
0.117474
0.0856328
0.0841731
0.0611468
0.0436235
0.0308485
0.021819
0.0155874
0.0113639
0.00856237
0.00680668
0.00594753
0.006144
0.00804916
0.0130427
0.0232484
0.0410199
0.0678192
0.102775
0.141664
0.177295
0.201717
0.209376
0.199399
0.175635
0.144582
0.112626
0.0841731
0.079303
0.0591377
0.0430929
0.0310288
0.0223111
0.016199
0.0120048
0.00917792
0.00732689
0.00622214
0.00582102
0.00635142
0.00847015
0.0134158
0.0229268
0.0386994
0.0613917
0.0895264
0.118987
0.143804
0.158247
0.159212
0.147452
0.126914
0.102742
0.079303
0.0713583
0.0550292
0.0412842
0.030526
0.0225169
0.0167771
0.0127736
0.010037
0.00820621
0.00703811
0.00641323
0.00636535
0.00715769
0.00940043
0.0141233
0.0226265
0.0359678
0.0541603
0.0754453
0.0962126
0.111965
0.119056
0.116248
0.105085
0.0889185
0.0713583
0.0613001
0.0492165
0.0383196
0.0293592
0.0224374
0.017338
0.013708
0.011188
0.00947682
0.00835387
0.00768408
0.00742606
0.00766173
0.00865701
0.0109337
0.015275
0.0225434
0.0332463
0.0469626
0.0619596
0.0753997
0.0842664
0.0866069
0.0823342
0.0730798
0.0613001
0.0505261
0.0424551
0.0345587
0.0276865
0.0221516
0.0179479
0.0148905
0.0127359
0.0112561
0.0102714
0.00966077
0.00936374
0.00938928
0.00984048
0.0109554
0.0131379
0.0169177
0.0227721
0.0308008
0.0403811
0.0500524
0.0578456
0.0620095
0.0617439
0.0574723
0.0505261
0.0404791
0.0356777
0.0305344
0.0257911
0.0218184
0.0187274
0.0164517
0.0148425
0.0137381
0.0130027
0.0125408
0.0122991
0.0122655
0.012475
0.0130272
0.0141079
0.0159913
0.0189826
0.0232716
0.0287261
0.0347331
0.0402404
0.0440696
0.0453799
0.0440074
0.0404791
0.0322375
0.0297276
0.0268086
0.0240114
0.021644
0.019834
0.0185612
0.017723
0.017194
0.0168659
0.0166658
0.0165569
0.0165318
0.0166069
0.0168238
0.0172604
0.0180416
0.0193288
0.0212672
0.0238854
0.0269875
0.0301117
0.0326248
0.0339444
0.0337778
0.0322375
0.026291
0.0251368
0.0238098
0.0226382
0.0218166
0.0214174
0.0213939
0.0216233
0.0219611
0.0222864
0.0225251
0.0226522
0.0226774
0.0226275
0.0225354
0.0224409
0.0224011
0.0224987
0.0228308
0.0234699
0.024403
0.0254873
0.0264599
0.0270234
0.0269717
0.026291
0.0225836
0.0220526
0.0217299
0.0218204
0.0224264
0.0235475
0.0250621
0.0267594
0.0283987
0.0297737
0.0307556
0.0313031
0.0314416
0.0312298
0.030731
0.0300012
0.0290948
0.0280789
0.0270415
0.0260803
0.0252727
0.02464
0.0241341
0.023662
0.0231452
0.0225836
0.0207383
0.0203193
0.020521
0.0215214
0.0234024
0.0261313
0.029513
0.0332032
0.0367779
0.0398367
0.042094
0.0434209
0.0438306
0.0434257
0.0423408
0.0407071
0.0386441
0.0362709
0.0337205
0.0311401
0.0286744
0.0264391
0.0245029
0.0228922
0.0216219
0.0207383
0.0203067
0.0196391
0.0199767
0.0215454
0.024495
0.028852
0.0344151
0.0407172
0.0470848
0.0527877
0.057217
0.0600102
0.0610799
0.0605544
0.0586805
0.0557414
0.0520136
0.0477586
0.0432299
0.0386735
0.034315
0.0303397
0.0268782
0.0240114
0.0217963
0.0203067
0.0209351
0.0197239
0.0198512
0.0216235
0.0253312
0.0311766
0.0390901
0.0485863
0.0587518
0.0684088
0.0764025
0.0818822
0.0844565
0.0841797
0.0814222
0.0767125
0.0706171
0.0636778
0.0563862
0.0491696
0.0423766
0.0362628
0.0309901
0.0266442
0.0232724
0.0209351
0.022429
0.0203889
0.0199652
0.0215301
0.0255408
0.0324753
0.0425761
0.0555569
0.0704211
0.0855366
0.0989928
0.109094
0.114769
0.115729
0.112373
0.105546
0.0962763
0.085597
0.0744275
0.063518
0.0534209
0.0444893
0.0369002
0.0307021
0.0258802
0.022429
0.0247477
0.0215784
0.020264
0.0211815
0.024914
0.0322443
0.0438822
0.0600307
0.079949
0.101778
0.122809
0.140151
0.151507
0.155716
0.152875
0.144077
0.13098
0.115385
0.0989373
0.0829462
0.0683211
0.0555803
0.04492
0.0363159
0.0296357
0.0247477
0.027959
0.0233407
0.0208147
0.0206712
0.0235122
0.0303466
0.0423879
0.0605723
0.0848704
0.113713
0.143915
0.171291
0.191774
0.202546
0.20269
0.193164
0.176249
0.154802
0.131592
0.108863
0.088152
0.0702873
0.0555299
0.0437618
0.0346798
0.027959
0.0321785
0.0257727
0.0217533
0.0202233
0.0216621
0.0271261
0.0381911
0.0565725
0.0833242
0.117854
0.157264
0.196523
0.229621
0.251292
0.258534
0.251269
0.231975
0.204645
0.173587
0.142494
0.113959
0.0893993
0.0692689
0.0533762
0.0412068
0.0321785
0.0375087
0.0289602
0.023212
0.0200931
0.0198261
0.0233003
0.0321648
0.0486799
0.0750368
0.11216
0.158434
0.209068
0.256723
0.293424
0.313011
0.312979
0.294909
0.263474
0.224694
0.184238
0.146346
0.113488
0.0865754
0.0654505
0.0493908
0.0375087
0.0440168
0.032956
0.025278
0.0204781
0.0184299
0.0196813
0.025635
0.038654
0.0617068
0.0972927
0.145823
0.204123
0.265006
0.318604
0.355239
0.368592
0.357627
0.326414
0.282206
0.232894
0.184979
0.14261
0.107624
0.0801477
0.0593432
0.0440168
0.0511754
0.0373765
0.0277204
0.0212935
0.0176064
0.0167885
0.0197742
0.028571
0.0462852
0.0764599
0.121564
0.180998
0.249525
0.317316
0.372245
0.403783
0.406649
0.382327
0.337859
0.282826
0.226225
0.174481
0.130955
0.0964876
0.0703644
0.0511754
0.0586645
0.0420498
0.0304136
0.0224675
0.017379
0.0148699
0.0153394
0.0201559
0.031946
0.0544413
0.0914537
0.144964
0.212885
0.287672
0.35712
0.407748
0.429508
0.419383
0.381969
0.326984
0.265391
0.206164
0.154793
0.113417
0.0818414
0.0586645

VECTORS u double
-168.006 135.148 0.0
-167.21 132.613 0.0
-165.83 129.977 0.0
-163.907 127.454 0.0
-161.263 125.34 0.0
-157.715 124.363 0.0
-153.669 125.6 0.0
-150.558 129.173 0.0
-149.403 133.506 0.0
-149.814 137.255 0.0
-151.048 140.165 0.0
-152.66 142.41 0.0
-154.448 144.161 0.0
-156.325 145.514 0.0
-158.243 146.501 0.0
-160.165 147.127 0.0
-162.048 147.386 0.0
-163.841 147.271 0.0
-165.481 146.788 0.0
-166.899 145.948 0.0
-168.029 144.774 0.0
-168.818 143.292 0.0
-169.23 141.535 0.0
-169.249 139.539 0.0
-168.872 137.37 0.0
-168.006 135.148 0.0
-168.688 135.074 0.0
-167.837 132.734 0.0
-166.512 129.994 0.0
-164.759 127.356 0.0
-162.447 124.951 0.0
-159.35 123.201 0.0
-155.411 123.056 0.0
-151.518 125.509 0.0
-149.297 129.842 0.0
-149.098 134.134 0.0
-150.122 137.521 0.0
-151.698 140.075 0.0
-153.519 142.032 0.0
-155.46 143.543 0.0
-157.463 144.674 0.0
-159.488 145.442 0.0
-161.489 145.845 0.0
-163.412 145.875 0.0
-165.192 145.536 0.0
-166.756 144.841 0.0
-168.037 143.813 0.0
-168.983 142.486 0.0
-169.563 140.896 0.0
-169.787 139.083 0.0
-169.639 137.098 0.0
-168.688 135.074 0.0
-169.419 134.833 0.0
-168.379 132.628 0.0
-166.982 129.952 0.0
-165.272 127.32 0.0
-163.136 124.831 0.0
-160.4 122.711 0.0
-156.864 121.534 0.0
-152.759 122.408 0.0
-149.484 125.914 0.0
-148.375 130.519 0.0
-149.033 134.48 0.0
-150.537 137.444 0.0
-152.383 139.654 0.0
-154.38 141.339 0.0
-156.455 142.617 0.0
-158.564 143.531 0.0
-160.664 144.086 0.0
-162.703 144.278 0.0
-164.616 144.107 0.0
-166.332 143.587 0.0
-167.785 142.742 0.0
-168.924 141.604 0.0
-169.717 140.207 0.0
-170.154 138.583 0.0
-170.223 136.758 0.0
-169.419 134.833 0.0
-169.715 134.503 0.0
-168.638 132.397 0.0
-167.196 129.879 0.0
-165.474 127.348 0.0
-163.392 124.918 0.0
-160.841 122.729 0.0
-157.664 121.074 0.0
-153.795 120.653 0.0
-149.916 122.545 0.0
-147.694 126.662 0.0
-147.734 131.074 0.0
-149.107 134.547 0.0
-150.997 137.085 0.0
-153.073 138.974 0.0
-155.229 140.405 0.0
-157.422 141.464 0.0
-159.616 142.174 0.0
-161.763 142.539 0.0
-163.805 142.558 0.0
-165.675 142.241 0.0
-167.309 141.606 0.0
-168.65 140.68 0.0
-169.651 139.488 0.0
-170.275 138.043 0.0
-170.449 136.35 0.0
-169.715 134.503 0.0
-169.613 134.133 0.0
-168.568 132.154 0.0
-167.119 129.829 0.0
-165.371 127.462 0.0
-163.276 125.18 0.0
-160.769 123.104 0.0
-157.765 121.398 0.0
-154.186 120.395 0.0
-150.239 120.812 0.0
-147.079 123.44 0.0
-146.171 127.585 0.0
-147.263 131.47 0.0
-149.227 134.397 0.0
-151.447 136.532 0.0
-153.733 138.127 0.0
-156.039 139.326 0.0
-158.339 140.186 0.0
-160.599 140.722 0.0
-162.77 140.937 0.0
-164.791 140.833 0.0
-166.598 140.422 0.0
-168.125 139.717 0.0
-169.305 138.727 0.0
-170.066 137.451 0.0
-170.312 135.886 0.0
-169.613 134.133 0.0
-169.15 133.735 0.0
-168.168 131.923 0.0
-166.735 129.816 0.0
-164.964 127.659 0.0
-162.825 125.59 0.0
-160.283 123.734 0.0
-157.304 122.22 0.0
-153.867 121.209 0.0
-150.058 120.997 0.0
-146.447 122.131 0.0
-144.431 124.957 0.0
-144.866 128.581 0.0
-146.855 131.742 0.0
-149.324 134.113 0.0
-151.848 135.87 0.0
-154.339 137.196 0.0
-156.79 138.187 0.0
-159.185 138.877 0.0
-161.492 139.273 0.0
-163.659 139.374 0.0
-165.621 139.18 0.0
-167.305 138.689 0.0
-168.625 137.895 0.0
-169.49 136.786 0.0
-169.792 135.359 0.0
-169.15 133.735 0.0
-168.327 133.302 0.0
-167.433 131.691 0.0
-166.034 129.828 0.0
-164.246 127.923 0.0
-162.055 126.123 0.0
-159.444 124.565 0.0
-156.417 123.375 0.0
-153.008 122.655 0.0
-149.317 122.503 0.0
-145.644 123.058 0.0
-142.824 124.54 0.0
-142.123 126.951 0.0
-143.724 129.657 0.0
-146.445 131.987 0.0
-149.356 133.795 0.0
-152.173 135.186 0.0
-154.867 136.26 0.0
-157.451 137.062 0.0
-159.919 137.603 0.0
-162.232 137.879 0.0
-164.334 137.876 0.0
-166.147 137.579 0.0
-167.577 136.969 0.0
-168.525 136.029 0.0
-168.888 134.762 0.0
-168.327 133.302 0.0
-167.145 132.82 0.0
-166.356 131.438 0.0
-165.003 129.846 0.0
-163.207 128.234 0.0
-160.966 126.759 0.0
-158.284 125.571 0.0
-155.197 124.793 0.0
-151.792 124.505 0.0
-148.207 124.72 0.0
-144.664 125.39 0.0
-141.598 126.43 0.0
-139.85 127.763 0.0
-140.316 129.307 0.0
-142.763 130.89 0.0
-146.029 132.328 0.0
-149.317 133.551 0.0
-152.403 134.565 0.0
-155.279 135.382 0.0
-157.964 135.996 0.0
-160.448 136.386 0.0
-162.689 136.528 0.0
-164.616 136.392 0.0
-166.14 135.949 0.0
-167.167 135.178 0.0
-167.602 134.089 0.0
-167.145 132.82 0.0
-165.605 132.289 0.0
-164.932 131.154 0.0
-163.637 129.859 0.0
-161.841 128.584 0.0
-159.562 127.494 0.0
-156.828 126.746 0.0
-153.717 126.454 0.0
-150.362 126.666 0.0
-146.939 127.339 0.0
-143.653 128.347 0.0
-140.753 129.499 0.0
-138.639 130.567 0.0
-137.948 131.366 0.0
-139.215 131.895 0.0
-142.118 132.349 0.0
-145.693 132.878 0.0
-149.24 133.477 0.0
-152.525 134.076 0.0
-155.52 134.604 0.0
-158.23 135 0.0
-160.636 135.206 0.0
-162.687 135.176 0.0
-164.31 134.867 0.0
-165.422 134.255 0.0
-165.945 133.35 0.0
-165.605 132.289 0.0
-163.721 131.735 0.0
-163.169 130.855 0.0
-161.938 129.882 0.0
-160.155 128.988 0.0
-157.859 128.347 0.0
-155.118 128.107 0.0
-152.056 128.359 0.0
-148.85 129.098 0.0
-145.698 130.22 0.0
-142.781 131.556 0.0
-140.261 132.902 0.0
-138.314 134.04 0.0
-137.207 134.75 0.0
-137.342 134.881 0.0
-139.017 134.517 0.0
-142.001 134.008 0.0
-145.598 133.685 0.0
-149.205 133.632 0.0
-152.545 133.761 0.0
-155.536 133.944 0.0
-158.15 134.068 0.0
-160.355 134.044 0.0
-162.096 133.807 0.0
-163.311 133.319 0.0
-163.934 132.587 0.0
-163.721 131.735 0.0
-161.535 131.222 0.0
-161.101 130.594 0.0
-159.939 129.96 0.0
-158.187 129.492 0.0
-155.915 129.358 0.0
-153.239 129.684 0.0
-150.334 130.508 0.0
-147.405 131.753 0.0
-144.643 133.26 0.0
-142.19 134.835 0.0
-140.141 136.294 0.0
-138.571 137.476 0.0
-137.573 138.231 0.0
-137.306 138.416 0.0
-137.994 137.949 0.0
-139.799 136.937 0.0
-142.589 135.726 0.0
-145.925 134.695 0.0
-149.332 134.013 0.0
-152.509 133.632 0.0
-155.316 133.412 0.0
-157.683 133.214 0.0
-159.556 132.928 0.0
-160.887 132.49 0.0
-161.619 131.885 0.0
-161.535 131.222 0.0
-159.15 130.86 0.0
-158.822 130.458 0.0
-157.731 130.17 0.0
-156.034 130.16 0.0
-153.846 130.575 0.0
-151.335 131.49 0.0
-148.714 132.865 0.0
-146.19 134.549 0.0
-143.915 136.341 0.0
-141.976 138.048 0.0
-140.416 139.527 0.0
-139.258 140.672 0.0
-138.537 141.404 0.0
-138.306 141.645 0.0
-138.652 141.319 0.0
-139.682 140.392 0.0
-141.463 138.963 0.0
-143.916 137.308 0.0
-146.786 135.765 0.0
-149.742 134.547 0.0
-152.515 133.669 0.0
-154.931 133.027 0.0
-156.883 132.491 0.0
-158.301 131.96 0.0
-159.125 131.389 0.0
-159.15 130.86 0.0
-156.79 130.793 0.0
-156.528 130.559 0.0
-155.497 130.594 0.0
-153.882 131.044 0.0
-151.847 132.008 0.0
-149.606 133.483 0.0
-147.383 135.334 0.0
-145.352 137.349 0.0
-143.606 139.314 0.0
-142.18 141.066 0.0
-141.076 142.503 0.0
-140.299 143.567 0.0
-139.862 144.226 0.0
-139.793 144.45 0.0
-140.124 144.204 0.0
-140.889 143.452 0.0
-142.112 142.19 0.0
-143.791 140.502 0.0
-145.858 138.592 0.0
-148.164 136.725 0.0
-150.503 135.11 0.0
-152.672 133.816 0.0
-154.507 132.801 0.0
-155.886 131.978 0.0
-156.718 131.291 0.0
-156.79 130.793 0.0
-154.814 131.142 0.0
-154.53 130.975 0.0
-153.517 131.266 0.0
-151.99 132.126 0.0
-150.159 133.583 0.0
-148.26 135.527 0.0
-146.493 137.739 0.0
-144.976 139.971 0.0
-143.743 142.022 0.0
-142.782 143.768 0.0
-142.076 145.144 0.0
-141.623 146.128 0.0
-141.436 146.71 0.0
-141.537 146.888 0.0
-141.947 146.655 0.0
-142.673 145.998 0.0
-143.702 144.908 0.0
-145.001 143.398 0.0
-146.523 141.542 0.0
-148.195 139.488 0.0
-149.92 137.438 0.0
-151.577 135.572 0.0
-153.032 133.992 0.0
-154.153 132.72 0.0
-154.824 131.749 0.0
-154.814 131.142 0.0
-153.618 131.909 0.0
-153.185 131.678 0.0
-152.102 132.11 0.0
-150.624 133.277 0.0
-148.989 135.116 0.0
-147.431 137.41 0.0
-146.104 139.869 0.0
-145.057 142.231 0.0
-144.272 144.323 0.0
-143.708 146.053 0.0
-143.338 147.388 0.0
-143.156 148.32 0.0
-143.179 148.854 0.0
-143.433 148.999 0.0
-143.937 148.762 0.0
-144.693 148.147 0.0
-145.676 147.155 0.0
-146.838 145.795 0.0
-148.11 144.091 0.0
-149.418 142.11 0.0
-150.688 139.968 0.0
-151.849 137.82 0.0
-152.826 135.825 0.0
-153.532 134.105 0.0
-153.87 132.757 0.0
-153.618 131.909 0.0
-153.416 132.936 0.0
-152.718 132.517 0.0
-151.457 132.945 0.0
-149.933 134.278 0.0
-148.418 136.37 0.0
-147.129 138.905 0.0
-146.161 141.531 0.0
-145.502 143.983 0.0
-145.086 146.112 0.0
-144.851 147.852 0.0
-144.762 149.184 0.0
-144.813 150.11 0.0
-145.02 150.641 0.0
-145.411 150.787 0.0
-146.008 150.562 0.0
-146.813 149.977 0.0
-147.801 149.045 0.0
-148.919 147.778 0.0
-150.092 146.194 0.0
-151.236 144.327 0.0
-152.268 142.24 0.0
-153.12 140.032 0.0
-153.732 137.835 0.0
-154.049 135.801 0.0
-154.007 134.096 0.0
-153.416 132.936 0.0
-154.126 134.002 0.0
-153.122 133.295 0.0
-151.592 133.569 0.0
-149.907 134.918 0.0
-148.388 137.144 0.0
-147.25 139.842 0.0