# vtk DataFile Version 2.0
Particulate Flow Equations Solution
ASCII
DATASET STRUCTURED_GRID
DIMENSIONS 26 26 1
POINTS 676 double
-10 -10 0
-9.23077 -10 0
-8.46154 -10 0
-7.69231 -10 0
-6.92308 -10 0
-6.15385 -10 0
-5.38462 -10 0
-4.61538 -10 0
-3.84615 -10 0
-3.07692 -10 0
-2.30769 -10 0
-1.53846 -10 0
-0.769231 -10 0
5.55112e-016 -10 0
0.769231 -10 0
1.53846 -10 0
2.30769 -10 0
3.07692 -10 0
3.84615 -10 0
4.61538 -10 0
5.38462 -10 0
6.15385 -10 0
6.92308 -10 0
7.69231 -10 0
8.46154 -10 0
10 -10 0
-10 -9.23077 0
-9.23077 -9.23077 0
-8.46154 -9.23077 0
-7.69231 -9.23077 0
-6.92308 -9.23077 0
-6.15385 -9.23077 0
-5.38462 -9.23077 0
-4.61538 -9.23077 0
-3.84615 -9.23077 0
-3.07692 -9.23077 0
-2.30769 -9.23077 0
-1.53846 -9.23077 0
-0.769231 -9.23077 0
5.55112e-016 -9.23077 0
0.769231 -9.23077 0
1.53846 -9.23077 0
2.30769 -9.23077 0
3.07692 -9.23077 0
3.84615 -9.23077 0
4.61538 -9.23077 0
5.38462 -9.23077 0
6.15385 -9.23077 0
6.92308 -9.23077 0
7.69231 -9.23077 0
8.46154 -9.23077 0
10 -9.23077 0
-10 -8.46154 0
-9.23077 -8.46154 0
-8.46154 -8.46154 0
-7.69231 -8.46154 0
-6.92308 -8.46154 0
-6.15385 -8.46154 0
-5.38462 -8.46154 0
-4.61538 -8.46154 0
-3.84615 -8.46154 0
-3.07692 -8.46154 0
-2.30769 -8.46154 0
-1.53846 -8.46154 0
-0.769231 -8.46154 0
5.55112e-016 -8.46154 0
0.769231 -8.46154 0
1.53846 -8.46154 0
2.30769 -8.46154 0
3.07692 -8.46154 0
3.84615 -8.46154 0
4.61538 -8.46154 0
5.38462 -8.46154 0
6.15385 -8.46154 0
6.92308 -8.46154 0
7.69231 -8.46154 0
8.46154 -8.46154 0
10 -8.46154 0
-10 -7.69231 0
-9.23077 -7.69231 0
-8.46154 -7.69231 0
-7.69231 -7.69231 0
-6.92308 -7.69231 0
-6.15385 -7.69231 0
-5.38462 -7.69231 0
-4.61538 -7.69231 0
-3.84615 -7.69231 0
-3.07692 -7.69231 0
-2.30769 -7.69231 0
-1.53846 -7.69231 0
-0.769231 -7.69231 0
5.55112e-016 -7.69231 0
0.769231 -7.69231 0
1.53846 -7.69231 0
2.30769 -7.69231 0
3.07692 -7.69231 0
3.84615 -7.69231 0
4.61538 -7.69231 0
5.38462 -7.69231 0
6.15385 -7.69231 0
6.92308 -7.69231 0
7.69231 -7.69231 0
8.46154 -7.69231 0
10 -7.69231 0
-10 -6.92308 0
-9.23077 -6.92308 0
-8.46154 -6.92308 0
-7.69231 -6.92308 0
-6.92308 -6.92308 0
-6.15385 -6.92308 0
-5.38462 -6.92308 0
-4.61538 -6.92308 0
-3.84615 -6.92308 0
-3.07692 -6.92308 0
-2.30769 -6.92308 0
-1.53846 -6.92308 0
-0.769231 -6.92308 0
5.55112e-016 -6.92308 0
0.769231 -6.92308 0
1.53846 -6.92308 0
2.30769 -6.92308 0
3.07692 -6.92308 0
3.84615 -6.92308 0
4.61538 -6.92308 0
5.38462 -6.92308 0
6.15385 -6.92308 0
6.92308 -6.92308 0
7.69231 -6.92308 0
8.46154 -6.92308 0
10 -6.92308 0
-10 -6.15385 0
-9.23077 -6.15385 0
-8.46154 -6.15385 0
-7.69231 -6.15385 0
-6.92308 -6.15385 0
-6.15385 -6.15385 0
-5.38462 -6.15385 0
-4.61538 -6.15385 0
-3.84615 -6.15385 0
-3.07692 -6.15385 0
-2.30769 -6.15385 0
-1.53846 -6.15385 0
-0.769231 -6.15385 0
5.55112e-016 -6.15385 0
0.769231 -6.15385 0
1.53846 -6.15385 0
2.30769 -6.15385 0
3.07692 -6.15385 0
3.84615 -6.15385 0
4.61538 -6.15385 0
5.38462 -6.15385 0
6.15385 -6.15385 0
6.92308 -6.15385 0
7.69231 -6.15385 0
8.46154 -6.15385 0
10 -6.15385 0
-10 -5.38462 0
-9.23077 -5.38462 0
-8.46154 -5.38462 0
-7.69231 -5.38462 0
-6.92308 -5.38462 0
-6.15385 -5.38462 0
-5.38462 -5.38462 0
-4.61538 -5.38462 0
-3.84615 -5.38462 0
-3.07692 -5.38462 0
-2.30769 -5.38462 0
-1.53846 -5.38462 0
-0.769231 -5.38462 0
5.55112e-016 -5.38462 0
0.769231 -5.38462 0
1.53846 -5.38462 0
2.30769 -5.38462 0
3.07692 -5.38462 0
3.84615 -5.38462 0
4.61538 -5.38462 0
5.38462 -5.38462 0
6.15385 -5.38462 0
6.92308 -5.38462 0
7.69231 -5.38462 0
8.46154 -5.38462 0
10 -5.38462 0
-10 -4.61538 0
-9.23077 -4.61538 0
-8.46154 -4.61538 0
-7.69231 -4.61538 0
-6.92308 -4.61538 0
-6.15385 -4.61538 0
-5.38462 -4.61538 0
-4.61538 -4.61538 0
-3.84615 -4.61538 0
-3.07692 -4.61538 0
-2.30769 -4.61538 0
-1.53846 -4.61538 0
-0.769231 -4.61538 0
5.55112e-016 -4.61538 0
0.769231 -4.61538 0
1.53846 -4.61538 0
2.30769 -4.61538 0
3.07692 -4.61538 0
3.84615 -4.61538 0
4.61538 -4.61538 0
5.38462 -4.61538 0
6.15385 -4.61538 0
6.92308 -4.61538 0
7.69231 -4.61538 0
8.46154 -4.61538 0
10 -4.61538 0
-10 -3.84615 0
-9.23077 -3.84615 0
-8.46154 -3.84615 0
-7.69231 -3.84615 0
-6.92308 -3.84615 0
-6.15385 -3.84615 0
-5.38462 -3.84615 0
-4.61538 -3.84615 0
-3.84615 -3.84615 0
-3.07692 -3.84615 0
-2.30769 -3.84615 0
-1.53846 -3.84615 0
-0.769231 -3.84615 0
5.55112e-016 -3.84615 0
0.769231 -3.84615 0
1.53846 -3.84615 0
2.30769 -3.84615 0
3.07692 -3.84615 0
3.84615 -3.84615 0
4.61538 -3.84615 0
5.38462 -3.84615 0
6.15385 -3.84615 0
6.92308 -3.84615 0
7.69231 -3.84615 0
8.46154 -3.84615 0
10 -3.84615 0
-10 -3.07692 0
-9.23077 -3.07692 0
-8.46154 -3.07692 0
-7.69231 -3.07692 0
-6.92308 -3.07692 0
-6.15385 -3.07692 0
-5.38462 -3.07692 0
-4.61538 -3.07692 0
-3.84615 -3.07692 0
-3.07692 -3.07692 0
-2.30769 -3.07692 0
-1.53846 -3.07692 0
-0.769231 -3.07692 0
5.55112e-016 -3.07692 0
0.769231 -3.07692 0
1.53846 -3.07692 0
2.30769 -3.07692 0
3.07692 -3.07692 0
3.84615 -3.07692 0
4.61538 -3.07692 0
5.38462 -3.07692 0
6.15385 -3.07692 0
6.92308 -3.07692 0
7.69231 -3.07692 0
8.46154 -3.07692 0
10 -3.07692 0
-10 -2.30769 0
-9.23077 -2.30769 0
-8.46154 -2.30769 0
-7.69231 -2.30769 0
-6.92308 -2.30769 0
-6.15385 -2.30769 0
-5.38462 -2.30769 0
-4.61538 -2.30769 0
-3.84615 -2.30769 0
-3.07692 -2.30769 0
-2.30769 -2.30769 0
-1.53846 -2.30769 0
-0.769231 -2.30769 0
5.55112e-016 -2.30769 0
0.769231 -2.30769 0
1.53846 -2.30769 0
2.30769 -2.30769 0
3.07692 -2.30769 0
3.84615 -2.30769 0
4.61538 -2.30769 0
5.38462 -2.30769 0
6.15385 -2.30769 0
6.92308 -2.30769 0
7.69231 -2.30769 0
8.46154 -2.30769 0
10 -2.30769 0
-10 -1.53846 0
-9.23077 -1.53846 0
-8.46154 -1.53846 0
-7.69231 -1.53846 0
-6.92308 -1.53846 0
-6.15385 -1.53846 0
-5.38462 -1.53846 0
-4.61538 -1.53846 0
-3.84615 -1.53846 0
-3.07692 -1.53846 0
-2.30769 -1.53846 0
-1.53846 -1.53846 0
-0.769231 -1.53846 0
5.55112e-016 -1.53846 0
0.769231 -1.53846 0
1.53846 -1.53846 0
2.30769 -1.53846 0
3.07692 -1.53846 0
3.84615 -1.53846 0
4.61538 -1.53846 0
5.38462 -1.53846 0
6.15385 -1.53846 0
6.92308 -1.53846 0
7.69231 -1.53846 0
8.46154 -1.53846 0
10 -1.53846 0
-10 -0.769231 0
-9.23077 -0.769231 0
-8.46154 -0.769231 0
-7.69231 -0.769231 0
-6.92308 -0.769231 0
-6.15385 -0.769231 0
-5.38462 -0.769231 0
-4.61538 -0.769231 0
-3.84615 -0.769231 0
-3.07692 -0.769231 0
-2.30769 -0.769231 0
-1.53846 -0.769231 0
-0.769231 -0.769231 0
5.55112e-016 -0.769231 0
0.769231 -0.769231 0
1.53846 -0.769231 0
2.30769 -0.769231 0
3.07692 -0.769231 0
3.84615 -0.769231 0
4.61538 -0.769231 0
5.38462 -0.769231 0
6.15385 -0.769231 0
6.92308 -0.769231 0
7.69231 -0.769231 0
8.46154 -0.769231 0
10 -0.769231 0
-10 5.55112e-016 0
-9.23077 5.55112e-016 0
-8.46154 5.55112e-016 0
-7.69231 5.55112e-016 0
-6.92308 5.55112e-016 0
-6.15385 5.55112e-016 0
-5.38462 5.55112e-016 0
-4.61538 5.55112e-016 0
-3.84615 5.55112e-016 0
-3.07692 5.55112e-016 0
-2.30769 5.55112e-016 0
-1.53846 5.55112e-016 0
-0.769231 5.55112e-016 0
5.55112e-016 5.55112e-016 0
0.769231 5.55112e-016 0
1.53846 5.55112e-016 0
2.30769 5.55112e-016 0
3.07692 5.55112e-016 0
3.84615 5.55112e-016 0
4.61538 5.55112e-016 0
5.38462 5.55112e-016 0
6.15385 5.55112e-016 0
6.92308 5.55112e-016 0
7.69231 5.55112e-016 0
8.46154 5.55112e-016 0
10 5.55112e-016 0
-10 0.769231 0
-9.23077 0.769231 0
-8.46154 0.769231 0
-7.69231 0.769231 0
-6.92308 0.769231 0
-6.15385 0.769231 0
-5.38462 0.769231 0
-4.61538 0.769231 0
-3.84615 0.769231 0
-3.07692 0.769231 0
-2.30769 0.769231 0
-1.53846 0.769231 0
-0.769231 0.769231 0
5.55112e-016 0.769231 0
0.769231 0.769231 0
1.53846 0.769231 0
2.30769 0.769231 0
3.07692 0.769231 0
3.84615 0.769231 0
4.61538 0.769231 0
5.38462 0.769231 0
6.15385 0.769231 0
6.92308 0.769231 0
7.69231 0.769231 0
8.46154 0.769231 0
10 0.769231 0
-10 1.53846 0
-9.23077 1.53846 0
-8.46154 1.53846 0
-7.69231 1.53846 0
-6.92308 1.53846 0
-6.15385 1.53846 0
-5.38462 1.53846 0
-4.61538 1.53846 0
-3.84615 1.53846 0
-3.07692 1.53846 0
-2.30769 1.53846 0
-1.53846 1.53846 0
-0.769231 1.53846 0
5.55112e-016 1.53846 0
0.769231 1.53846 0
1.53846 1.53846 0
2.30769 1.53846 0
3.07692 1.53846 0
3.84615 1.53846 0
4.61538 1.53846 0
5.38462 1.53846 0
6.15385 1.53846 0
6.92308 1.53846 0
7.69231 1.53846 0
8.46154 1.53846 0
10 1.53846 0
-10 2.30769 0
-9.23077 2.30769 0
-8.46154 2.30769 0
-7.69231 2.30769 0
-6.92308 2.30769 0
-6.15385 2.30769 0
-5.38462 2.30769 0
-4.61538 2.30769 0
-3.84615 2.30769 0
-3.07692 2.30769 0
-2.30769 2.30769 0
-1.53846 2.30769 0
-0.769231 2.30769 0
5.55112e-016 2.30769 0
0.769231 2.30769 0
1.53846 2.30769 0
2.30769 2.30769 0
3.07692 2.30769 0
3.84615 2.30769 0
4.61538 2.30769 0
5.38462 2.30769 0
6.15385 2.30769 0
6.92308 2.30769 0
7.69231 2.30769 0
8.46154 2.30769 0
10 2.30769 0
-10 3.07692 0
-9.23077 3.07692 0
-8.46154 3.07692 0
-7.69231 3.07692 0
-6.92308 3.07692 0
-6.15385 3.07692 0
-5.38462 3.07692 0
-4.61538 3.07692 0
-3.84615 3.07692 0
-3.07692 3.07692 0
-2.30769 3.07692 0
-1.53846 3.07692 0
-0.769231 3.07692 0
5.55112e-016 3.07692 0
0.769231 3.07692 0
1.53846 3.07692 0
2.30769 3.07692 0
3.07692 3.07692 0
3.84615 3.07692 0
4.61538 3.07692 0
5.38462 3.07692 0
6.15385 3.07692 0
6.92308 3.07692 0
7.69231 3.07692 0
8.46154 3.07692 0
10 3.07692 0
-10 3.84615 0
-9.23077 3.84615 0
-8.46154 3.84615 0
-7.69231 3.84615 0
-6.92308 3.84615 0
-6.15385 3.84615 0
-5.38462 3.84615 0
-4.61538 3.84615 0
-3.84615 3.84615 0
-3.07692 3.84615 0
-2.30769 3.84615 0
-1.53846 3.84615 0
-0.769231 3.84615 0
5.55112e-016 3.84615 0
0.769231 3.84615 0
1.53846 3.84615 0
2.30769 3.84615 0
3.07692 3.84615 0
3.84615 3.84615 0
4.61538 3.84615 0
5.38462 3.84615 0
6.15385 3.84615 0
6.92308 3.84615 0
7.69231 3.84615 0
8.46154 3.84615 0
10 3.84615 0
-10 4.61538 0
-9.23077 4.61538 0
-8.46154 4.61538 0
-7.69231 4.61538 0
-6.92308 4.61538 0
-6.15385 4.61538 0
-5.38462 4.61538 0
-4.61538 4.61538 0
-3.84615 4.61538 0
-3.07692 4.61538 0
-2.30769 4.61538 0
-1.53846 4.61538 0
-0.769231 4.61538 0
5.55112e-016 4.61538 0
0.769231 4.61538 0
1.53846 4.61538 0
2.30769 4.61538 0
3.07692 4.61538 0
3.84615 4.61538 0
4.61538 4.61538 0
5.38462 4.61538 0
6.15385 4.61538 0
6.92308 4.61538 0
7.69231 4.61538 0
8.46154 4.61538 0
10 4.61538 0
-10 5.38462 0
-9.23077 5.38462 0
-8.46154 5.38462 0
-7.69231 5.38462 0
-6.92308 5.38462 0
-6.15385 5.38462 0
-5.38462 5.38462 0
-4.61538 5.38462 0
-3.84615 5.38462 0
-3.07692 5.38462 0
-2.30769 5.38462 0
-1.53846 5.38462 0
-0.769231 5.38462 0
5.55112e-016 5.38462 0
0.769231 5.38462 0
1.53846 5.38462 0
2.30769 5.38462 0
3.07692 5.38462 0
3.84615 5.38462 0
4.61538 5.38462 0
5.38462 5.38462 0
6.15385 5.38462 0
6.92308 5.38462 0
7.69231 5.38462 0
8.46154 5.38462 0
10 5.38462 0
-10 6.15385 0
-9.23077 6.15385 0
-8.46154 6.15385 0
-7.69231 6.15385 0
-6.92308 6.15385 0
-6.15385 6.15385 0
-5.38462 6.15385 0
-4.61538 6.15385 0
-3.84615 6.15385 0
-3.07692 6.15385 0
-2.30769 6.15385 0
-1.53846 6.15385 0
-0.769231 6.15385 0
5.55112e-016 6.15385 0
0.769231 6.15385 0
1.53846 6.15385 0
2.30769 6.15385 0
3.07692 6.15385 0
3.84615 6.15385 0
4.61538 6.15385 0
5.38462 6.15385 0
6.15385 6.15385 0
6.92308 6.15385 0
7.69231 6.15385 0
8.46154 6.15385 0
10 6.15385 0
-10 6.92308 0
-9.23077 6.92308 0
-8.46154 6.92308 0
-7.69231 6.92308 0
-6.92308 6.92308 0
-6.15385 6.92308 0
-5.38462 6.92308 0
-4.61538 6.92308 0
-3.84615 6.92308 0
-3.07692 6.92308 0
-2.30769 6.92308 0
-1.53846 6.92308 0
-0.769231 6.92308 0
5.55112e-016 6.92308 0
0.769231 6.92308 0
1.53846 6.92308 0
2.30769 6.92308 0
3.07692 6.92308 0
3.84615 6.92308 0
4.61538 6.92308 0
5.38462 6.92308 0
6.15385 6.92308 0
6.92308 6.92308 0
7.69231 6.92308 0
8.46154 6.92308 0
10 6.92308 0
-10 7.69231 0
-9.23077 7.69231 0
-8.46154 7.69231 0
-7.69231 7.69231 0
-6.92308 7.69231 0
-6.15385 7.69231 0
-5.38462 7.69231 0
-4.61538 7.69231 0
-3.84615 7.69231 0
-3.07692 7.69231 0
-2.30769 7.69231 0
-1.53846 7.69231 0
-0.769231 7.69231 0
5.55112e-016 7.69231 0
0.769231 7.69231 0
1.53846 7.69231 0
2.30769 7.69231 0
3.07692 7.69231 0
3.84615 7.69231 0
4.61538 7.69231 0
5.38462 7.69231 0
6.15385 7.69231 0
6.92308 7.69231 0
7.69231 7.69231 0
8.46154 7.69231 0
10 7.69231 0
-10 8.46154 0
-9.23077 8.46154 0
-8.46154 8.46154 0
-7.69231 8.46154 0
-6.92308 8.46154 0
-6.15385 8.46154 0
-5.38462 8.46154 0
-4.61538 8.46154 0
-3.84615 8.46154 0
-3.07692 8.46154 0
-2.30769 8.46154 0
-1.53846 8.46154 0
-0.769231 8.46154 0
5.55112e-016 8.46154 0
0.769231 8.46154 0
1.53846 8.46154 0
2.30769 8.46154 0
3.07692 8.46154 0
3.84615 8.46154 0
4.61538 8.46154 0
5.38462 8.46154 0
6.15385 8.46154 0
6.92308 8.46154 0
7.69231 8.46154 0
8.46154 8.46154 0
10 8.46154 0
-10 10 0
-9.23077 10 0
-8.46154 10 0
-7.69231 10 0
-6.92308 10 0
-6.15385 10 0
-5.38462 10 0
-4.61538 10 0
-3.84615 10 0
-3.07692 10 0
-2.30769 10 0
-1.53846 10 0
-0.769231 10 0
5.55112e-016 10 0
0.769231 10 0
1.53846 10 0
2.30769 10 0
3.07692 10 0
3.84615 10 0
4.61538 10 0
5.38462 10 0
6.15385 10 0
6.92308 10 0
7.69231 10 0
8.46154 10 0
10 10 0

POINT_DATA 676
SCALARS h double 1
LOOkUP_TABLE default
0.00522491
0.00505286
0.00512806
0.00551496
0.00627499
0.00743248
0.00893644
0.0106509
0.0123852
0.013952
0.0152181
0.0161232
0.0166589
0.0168316
0.0166338
0.016046
0.0150667
0.0137511
0.0122249
0.0106549
0.00919485
0.00794379
0.00693665
0.00616326
0.00559771
0.00522491
0.005793
0.00563846
0.00588124
0.00666658
0.00815386
0.0104471
0.0134994
0.0170596
0.0207074
0.0239708
0.0264605
0.0279472
0.0283618
0.0277525
0.0262483
0.0240429
0.021382
0.0185331
0.0157455
0.0132143
0.0110591
0.00932011
0.00797487
0.00696846
0.00624788
0.005793
0.00638849
0.00621954
0.00664357
0.00794284
0.0104711
0.0145385
0.0202074
0.0271136
0.0344492
0.0411559
0.0462324
0.0489901
0.0491606
0.0468814
0.0426329
0.0371422
0.0312224
0.0255725
0.020637
0.0165929
0.0134259
0.0110213
0.00923069
0.00791465
0.0069761
0.00638849
0.00695952
0.0066991
0.00724921
0.00908018
0.0128633
0.0193294
0.0289084
0.0412883
0.055179
0.0685037
0.0789777
0.0847825
0.08503
0.0799197
0.0706427
0.0590601
0.0471676
0.0365141
0.0278799
0.0213466
0.0165977
0.0132027
0.0107732
0.0090191
0.00776443
0.00695952
0.0074918
0.00700721
0.00752982
0.0097308
0.0146955
0.0238355
0.0383923
0.058595
0.0828958
0.107845
0.128882
0.141746
0.143847
0.13505
0.117674
0.095715
0.0734729
0.0541556
0.0391913
0.0284814
0.0211474
0.0161829
0.0127733
0.0103659
0.00864264
0.0074918
0.00802576
0.0071425
0.00740072
0.00961271
0.0152667
0.0266237
0.0462499
0.0757816
0.114297
0.15723
0.196837
0.224421
0.233435
0.221969
0.193508
0.155531
0.116515
0.0828435
0.0573061
0.0396264
0.0280129
0.0204904
0.0155234
0.0121134
0.00969474
0.00802576
0.00865111
0.00718808
0.00692856
0.00868867
0.0141857
0.0264308
0.0495801
0.0876267
0.141882
0.208209
0.275914
0.329964
0.356311
0.347874
0.30785
0.24827
0.184413
0.128446
0.0860438
0.0570896
0.0385226
0.0268662
0.0194273
0.0144801
0.0110462
0.00865111
0.00946796
0.00727679
0.00631864
0.00723687
0.0116777
0.0229715
0.0465387
0.089089
0.155823
0.24588
0.348233
0.441679
0.501255
0.509123
0.463701
0.380641
0.284532
0.197081
0.129684
0.0835336
0.054204
0.0361378
0.0249151
0.0176858
0.0128198
0.00946796
0.0105303
0.00751928
0.00581156
0.00572728
0.00853658
0.0172861
0.0377361
0.0785123
0.149104
0.254651
0.388605
0.52789
0.636747
0.681175
0.64688
0.547779
0.417708
0.291684
0.191082
0.120962
0.0762264
0.0489028
0.0322594
0.0218437
0.0150684
0.0105303
0.0118061
0.00794527
0.0055571
0.00457224
0.00570097
0.0112149
0.0261397
0.0592805
0.122778
0.228112
0.377468
0.553579
0.716594
0.816426
0.818252
0.723848
0.570282
0.406565
0.268445
0.168972
0.10449
0.0650584
0.0413347
0.0268414
0.017715
0.0118061
0.0131788
0.00849951
0.00556072
0.00393359
0.00377016
0.00637186
0.0153371
0.0379713
0.0861915
0.174966
0.315412
0.502359
0.70323
0.861337
0.920993
0.861211
0.709603
0.522805
0.352088
0.222893
0.136698
0.0833838
0.051445
0.0322767
0.0205365
0.0131788
0.0144794
0.00908079
0.00572985
0.00372264
0.00280393
0.00343157
0.00763613
0.0204231
0.0511753
0.114142
0.225066
0.39094
0.595081
0.789324
0.908674
0.907727
0.791312
0.609786
0.423951
0.273136
0.168008
0.101441
0.0613392
0.0375016
0.0232018
0.0144794
0.015522
0.00957855
0.00595128
0.00375023
0.00249506
0.00212698
0.0034289
0.00914955
0.0254229
0.0629413
0.136562
0.259693
0.431524
0.623089
0.777734
0.837423
0.780519
0.636448
0.462438
0.307012
0.191739
0.115918
0.0694122
0.041741
0.0253361
0.015522
0.0161236
0.00988565
0.00612923
0.0038585
0.00249532
0.00176471
0.00176812
0.00356524
0.0104172
0.0290061
0.0700991
0.146886
0.267493
0.422074
0.574122
0.670947
0.67456
0.588227
0.452019
0.31321
0.201217
0.123355
0.0739998
0.0442176
0.0265728
0.0161236
0.0161196
0.00990342
0.00618784
0.00395139
0.00259197
0.00177815
0.00137587
0.00159526
0.0036517
0.0109749
0.0300624
0.0703823
0.141495
0.245033
0.36468
0.464935
0.507722
0.477709
0.392429
0.287288
0.192359
0.121177
0.073743
0.0442726
0.0265943
0.0161196
0.015399
0.00956055
0.00607363
0.00397605
0.00269234
0.00189876
0.00141757
0.00120351
0.001516
0.0035694
0.0105814
0.0281769
0.0634912
0.121677
0.199124
0.278161
0.331694
0.339109
0.300484
0.234938
0.165975
0.108849
0.0680682
0.0415475
0.0252048
0.015399
0.013964
0.00884646
0.00577009
0.00391157
0.00276367
0.00203913
0.0015735
0.00128096
0.00116432
0.00148143
0.0033037
0.00932212
0.0238402
0.0513388
0.0932312
0.143511
0.187773
0.20976
0.201929
0.170145
0.128197
0.0885869
0.0576495
0.0362187
0.0224433
0.013964
0.0119779
0.00783805
0.00531156
0.00376921
0.00280308
0.00217883
0.00176148
0.00147515
0.00128396
0.00121208
0.0014833
0.00294025
0.00757816
0.0182738
0.0372587
0.0637536
0.0920717
0.112961
0.118829
0.108695
0.0881416
0.0648736
0.0444665
0.029122
0.0186692
0.0119779
0.00975335
0.00669463
0.00478012
0.00358932
0.00282753
0.00232086
0.00196836
0.00171303
0.00152358
0.00138902
0.00134058
0.00155643
0.00263553
0.00588119
0.01294
0.0245779
0.0393343
0.0532181
0.0614454
0.0613595
0.0539512
0.042698
0.0311823
0.0215725
0.0145173
0.00975335
0.00766273
0.00561312
0.00428142
0.00342859
0.00286688
0.0024809
0.00220231
0.00199225
0.00182917
0.00170258
0.00161443
0.00159871
0.00179239
0.0025875
0.0047265
0.00897433
0.0153629
0.022639
0.0285736
0.0311632
0.0298277
0.025569
0.0201073
0.0148978
0.0106983
0.00766273
0.00601273
0.00476418
0.00391137
0.00334354
0.00295747
0.00268603
0.00248761
0.0023375
0.00222163
0.00213361
0.00207463
0.00205712
0.00211869
0.00236181
0.00301592
0.00442516
0.00682078
0.00998022
0.0131239
0.0152529
0.0157209
0.0145745
0.0124109
0.00995917
0.00774787
0.00601273
0.0049546
0.00424458
0.00373259
0.00338049
0.00314061
0.00297938
0.00287338
0.00280622
0.00276714
0.00275169
0.0027633
0.00281459
0.0029279
0.0031377
0.00349993
0.0041002
0.00502016
0.00623955
0.00755019
0.00859769
0.00905824
0.00882014
0.00802477
0.00695373
0.00587515
0.0049546
0.00447538
0.00406875
0.00377109
0.00357694
0.00346915
0.00343328
0.00345426
0.00351628
0.00360555
0.00371485
0.00384741
0.00401775
0.00424703
0.00455222
0.00493304
0.00536684
0.00581752
0.00624508
0.00659956
0.00681228
0.00681267
0.00656965
0.00612033
0.00555677
0.00498271
0.00447538
0.0044627
0.00419889
0.00403416
0.00397836
0.00403124
0.00418709
0.00442824
0.00472658
0.00505163
0.00538156
0.00571126
0.00605274
0.00642514
0.00683525
0.00725559
0.00761634
0.00782824
0.00782934
0.0076181
0.00724391
0.00677144
0.00625497
0.00573543
0.00524619
0.00481505
0.0044627
0.00475504
0.0045514
0.00449671
0.00461577
0.00492772
0.0054337
0.00610212
0.00686961
0.00765829
0.00840106
0.00906104
0.00963402
0.0101319
0.010554
0.010862
0.0109769
0.0108117
0.0103284
0.00957376
0.00866415
0.00773108
0.00687328
0.00614112
0.00554745
0.00508731
0.00475504
0.00522491
0.00505286
0.00512806
0.00551496
0.00627499
0.00743248
0.00893644
0.0106509
0.0123852
0.013952
0.0152181
0.0161232
0.0166589
0.0168316
0.0166338
0.016046
0.0150667
0.0137511
0.0122249
0.0106549
0.00919485
0.00794379
0.00693665
0.00616326
0.00559771
0.00522491

VECTORS u double
-120.909 89.0671 0.0
-117.915 90.3034 0.0
-114.651 93.1861 0.0
-111.619 97.5078 0.0
-109.219 102.485 0.0
-107.571 107.264 0.0
-106.523 111.321 0.0
-105.845 114.508 0.0
-105.374 116.889 0.0
-105.069 118.579 0.0
-105.003 119.669 0.0
-105.342 120.209 0.0
-106.287 120.203 0.0
-107.998 119.628 0.0
-110.507 118.451 0.0
-113.667 116.654 0.0
-117.162 114.25 0.0
-120.596 111.29 0.0
-123.589 107.873 0.0
-125.849 104.148 0.0
-127.203 100.324 0.0
-127.595 96.6587 0.0
-127.062 93.4274 0.0
-125.704 90.8956 0.0
-123.628 89.3311 0.0
-120.909 89.0671 0.0
-123.098 90.0731 0.0
-119.677 91.7669 0.0
-116.028 95.4544 0.0
-112.824 100.796 0.0
-110.576 106.59 0.0
-109.322 111.748 0.0
-108.756 115.822 0.0
-108.551 118.845 0.0
-108.517 121.004 0.0
-108.61 122.47 0.0
-108.904 123.352 0.0
-109.546 123.697 0.0
-110.709 123.51 0.0
-112.519 122.766 0.0
-114.989 121.43 0.0
-117.979 119.471 0.0
-121.216 116.888 0.0
-124.354 113.721 0.0
-127.059 110.067 0.0
-129.066 106.082 0.0
-130.207 101.99 0.0
-130.424 98.0656 0.0
-129.751 94.6033 0.0
-128.281 91.8912 0.0
-126.098 90.2388 0.0
-123.098 90.0731 0.0
-125.466 90.6366 0.0
-121.639 92.5714 0.0
-117.538 96.9928 0.0
-114.082 103.28 0.0
-111.927 109.753 0.0
-111 115.145 0.0
-110.828 119.169 0.0
-111.009 122.051 0.0
-111.342 124.074 0.0
-111.787 125.433 0.0
-112.418 126.232 0.0
-113.372 126.512 0.0
-114.797 126.272 0.0
-116.79 125.485 0.0
-119.335 124.111 0.0
-122.278 122.104 0.0
-125.353 119.438 0.0
-128.249 116.13 0.0
-130.673 112.27 0.0
-132.4 108.032 0.0
-133.293 103.667 0.0
-133.312 99.4723 0.0
-132.5 95.7524 0.0
-130.934 92.7916 0.0
-128.648 90.9135 0.0
-125.466 90.6366 0.0
-127.921 90.7231 0.0
-123.782 92.6044 0.0
-119.19 97.5382 0.0
-115.36 104.668 0.0
-113.181 111.757 0.0
-112.477 117.354 0.0
-112.606 121.364 0.0
-113.094 124.191 0.0
-113.729 126.185 0.0
-114.479 127.551 0.0
-115.413 128.379 0.0
-116.662 128.697 0.0
-118.36 128.499 0.0
-120.582 127.758 0.0
-123.291 126.434 0.0
-126.312 124.474 0.0
-129.363 121.825 0.0
-132.132 118.471 0.0
-134.346 114.476 0.0
-135.815 110.018 0.0
-136.449 105.381 0.0
-136.246 100.895 0.0
-135.275 96.8735 0.0
-133.61 93.5835 0.0
-131.241 91.3378 0.0
-127.921 90.7231 0.0
-130.497 90.3618 0.0
-126.163 91.8149 0.0
-121.056 96.9028 0.0
-116.678 104.767 0.0
-114.3 112.517 0.0
-113.7 118.393 0.0
-114.047 122.474 0.0
-114.782 125.339 0.0
-115.674 127.402 0.0
-116.687 128.87 0.0
-117.888 129.818 0.0
-119.401 130.258 0.0
-121.35 130.174 0.0
-123.801 129.542 0.0
-126.708 128.323 0.0
-129.879 126.469 0.0
-133.016 123.914 0.0
-135.784 120.608 0.0
-137.899 116.573 0.0
-139.184 111.966 0.0
-139.586 107.086 0.0
-139.159 102.302 0.0
-138.015 97.9441 0.0
-136.252 94.2648 0.0
-133.849 91.5395 0.0
-130.497 90.3618 0.0
-133.128 89.6338 0.0
-128.797 90.2455 0.0
-123.246 94.9667 0.0
-118.118 103.41 0.0
-115.296 111.981 0.0
-114.658 118.297 0.0
-115.151 122.554 0.0
-116.09 125.533 0.0
-117.209 127.73 0.0
-118.459 129.365 0.0
-119.9 130.5 0.0
-121.646 131.128 0.0
-123.814 131.222 0.0
-126.467 130.746 0.0
-129.556 129.671 0.0
-132.889 127.952 0.0
-136.155 125.529 0.0
-139.002 122.335 0.0
-141.118 118.35 0.0
-142.313 113.687 0.0
-142.55 108.633 0.0
-141.93 103.579 0.0
-140.622 98.8838 0.0
-138.769 94.7973 0.0
-136.381 91.5418 0.0
-133.128 89.6338 0.0
-135.63 88.6477 0.0
-131.563 88.0896 0.0
-125.839 91.742 0.0
-119.827 100.41 0.0
-116.233 110.052 0.0
-115.37 117.081 0.0
-115.931 121.643 0.0
-117.039 124.788 0.0
-118.365 127.149 0.0
-119.837 128.978 0.0
-121.502 130.336 0.0
-123.461 131.199 0.0
-125.821 131.517 0.0
-128.643 131.242 0.0
-131.879 130.339 0.0
-135.342 128.772 0.0
-138.726 126.491 0.0
-141.666 123.43 0.0
-143.833 119.549 0.0
-145.012 114.916 0.0
-145.161 109.779 0.0
-144.407 104.528 0.0
-142.968 99.5431 0.0
-141.04 95.0845 0.0
-138.688 91.3271 0.0
-135.63 88.6477 0.0
-137.758 87.4953 0.0
-134.149 85.6917 0.0
-128.738 87.5394 0.0
-121.993 95.5936 0.0
-117.239 106.525 0.0
-115.877 114.717 0.0
-116.403 119.784 0.0
-117.641 123.147 0.0
-119.152 125.669 0.0
-120.835 127.683 0.0
-122.715 129.264 0.0
-124.877 130.375 0.0
-127.414 130.945 0.0
-130.379 130.905 0.0
-133.726 130.202 0.0
-137.28 128.801 0.0
-140.742 126.663 0.0
-143.75 123.735 0.0
-145.968 119.977 0.0
-147.164 115.428 0.0
-147.283 110.295 0.0
-146.456 104.942 0.0
-144.928 99.7541 0.0
-142.939 95.0037 0.0
-140.611 90.8394 0.0
-137.758 87.4953 0.0
-139.313 86.2346 0.0
-136.154 83.4238 0.0
-131.505 83.1223 0.0
-124.693 89.0993 0.0
-118.519 101.022 0.0
-116.248 111.076 0.0
-116.589 117.023 0.0
-117.902 120.699 0.0
-119.572 123.373 0.0
-121.447 125.534 0.0
-123.532 127.301 0.0
-125.889 128.642 0.0
-128.593 129.466 0.0
-131.687 129.677 0.0
-135.123 129.199 0.0
-138.734 127.985 0.0
-142.235 125.999 0.0
-145.277 123.206 0.0
-147.525 119.575 0.0
-148.743 115.143 0.0
-148.861 110.082 0.0
-148.004 104.719 0.0
-146.423 99.4295 0.0
-144.381 94.4909 0.0
-142.042 90.0456 0.0
-139.313 86.2346 0.0
-140.236 84.9401 0.0
-137.334 81.5239 0.0
-133.479 79.4621 0.0
-127.538 82.006 0.0
-120.314 93.1314 0.0
-116.593 105.779 0.0
-116.511 113.351 0.0
-117.831 117.576 0.0
-119.624 120.424 0.0
-121.663 122.687 0.0
-123.93 124.582 0.0
-126.467 126.102 0.0
-129.331 127.152 0.0
-132.545 127.611 0.0
-136.057 127.375 0.0
-139.707 126.374 0.0
-143.224 124.566 0.0
-146.275 121.925 0.0
-148.535 118.441 0.0
-149.772 114.154 0.0
-149.905 109.219 0.0
-149.044 103.929 0.0
-147.432 98.6355 0.0
-145.339 93.6151 0.0
-142.95 89.015 0.0
-140.236 84.9401 0.0
-140.578 83.7624 0.0
-137.714 80.0939 0.0
-134.292 77.0878 0.0
-129.542 76.3999 0.0
-122.565 83.4132 0.0
-117.066 98.0057 0.0
-116.172 108.519 0.0
-117.423 113.874 0.0
-119.309 117.032 0.0
-121.48 119.379 0.0
-123.896 121.34 0.0
-126.587 122.972 0.0
-129.592 124.194 0.0
-132.917 124.874 0.0
-136.5 124.883 0.0
-140.182 124.121 0.0
-143.705 122.528 0.0
-146.755 120.08 0.0
-149.023 116.781 0.0
-150.281 112.683 0.0
-150.444 107.931 0.0
-149.598 102.789 0.0
-147.971 97.5805 0.0
-145.828 92.5784 0.0
-143.363 87.9377 0.0
-140.578 83.7624 0.0
-140.423 82.9051 0.0
-137.458 79.2076 0.0
-134.094 75.913 0.0
-130.016 73.5556 0.0
-124.288 75.1077 0.0
-117.754 87.0486 0.0
-115.496 101.64 0.0
-116.608 109.452 0.0
-118.611 113.349 0.0
-120.903 115.862 0.0
-123.436 117.856 0.0
-126.245 119.533 0.0
-129.361 120.861 0.0
-132.777 121.715 0.0
-136.422 121.951 0.0
-140.134 121.444 0.0
-143.665 120.108 0.0
-146.716 117.907 0.0
-148.996 114.851 0.0
-150.287 111 0.0
-150.496 106.494 0.0
-149.689 101.573 0.0
-148.067 96.5344 0.0
-145.88 91.6414 0.0
-143.326 87.059 0.0
-140.423 82.9051 0.0
-139.848 82.5297 0.0
-136.719 78.9241 0.0
-133.211 75.6611 0.0
-129.228 72.8954 0.0
-124.332 71.4558 0.0
-118.17 75.9118 0.0
-114.211 91.0096 0.0
-115.079 103.466 0.0
-117.401 109.267 0.0
-119.905 112.286 0.0
-122.56 114.371 0.0
-125.458 116.06 0.0
-128.65 117.431 0.0
-132.13 118.399 0.0
-135.82 118.825 0.0
-139.556 118.567 0.0
-143.096 117.517 0.0
-146.155 115.617 0.0
-148.456 112.869 0.0
-149.794 109.333 0.0
-150.07 105.143 0.0
-149.329 100.516 0.0
-147.74 95.7247 0.0
-145.528 91.0204 0.0
-142.888 86.5766 0.0
-139.848 82.5297 0.0
-138.908 82.6753 0.0
-135.592 79.2189 0.0
-131.862 76.1013 0.0
-127.709 73.4157 0.0
-122.949 71.3304 0.0
-117.341 71.0121 0.0
-112.062 78.0739 0.0
-111.944 93.7429 0.0
-115.153 103.939 0.0
-118.294 108.503 0.0
-121.226 110.982 0.0
-124.241 112.737 0.0
-127.491 114.123 0.0
-131.006 115.151 0.0
-134.718 115.716 0.0
-138.465 115.68 0.0
-142.011 114.919 0.0
-145.081 113.353 0.0
-147.414 110.967 0.0
-148.81 107.809 0.0
-149.174 104 0.0
-148.525 99.7355 0.0
-146.999 95.2586 0.0
-144.792 90.8076 0.0
-142.083 86.5614 0.0
-138.908 82.6753 0.0
-137.631 83.2441 0.0
-134.121 79.9568 0.0
-130.144 77.014 0.0
-125.746 74.5261 0.0
-120.855 72.5614 0.0
-115.409 71.3154 0.0
-109.658 72.0743 0.0
-106.577 80.3901 0.0
-110.276 94.9993 0.0
-115.288 103.604 0.0
-119.151 107.459 0.0
-122.519 109.578 0.0
-125.891 111.041 0.0
-129.443 112.11 0.0
-133.16 112.767 0.0
-136.903 112.908 0.0
-140.446 112.411 0.0
-143.527 111.183 0.0
-145.894 109.185 0.0
-147.358 106.446 0.0
-147.821 103.066 0.0
-147.286 99.2136 0.0
-145.854 95.1029 0.0
-143.683 90.9527 0.0
-140.931 86.9426 0.0
-137.631 83.2441 0.0
-136.013 84.0503 0.0
-132.309 80.9338 0.0
-128.076 78.1698 0.0
-123.43 75.9035 0.0
-118.391 74.2087 0.0
-113.01 73.1387 0.0
-107.416 72.8142 0.0
-102.314 74.3086 0.0
-101.726 82.2803 0.0
-108.539 95.1892 0.0
-115.204 102.81 0.0
-119.86 106.263 0.0
-123.708 108.114 0.0
-127.414 109.297 0.0
-131.168 110.036 0.0
-134.908 110.313 0.0
-138.444 110.038 0.0
-141.532 109.118 0.0