# vtk DataFile Version 2.0
Particulate Flow Equations Solution
ASCII
DATASET STRUCTURED_GRID
DIMENSIONS 26 26 1
POINTS 676 double
-10 -10 0
-9.23077 -10 0
-8.46154 -10 0
-7.69231 -10 0
-6.92308 -10 0
-6.15385 -10 0
-5.38462 -10 0
-4.61538 -10 0
-3.84615 -10 0
-3.07692 -10 0
-2.30769 -10 0
-1.53846 -10 0
-0.769231 -10 0
5.55112e-016 -10 0
0.769231 -10 0
1.53846 -10 0
2.30769 -10 0
3.07692 -10 0
3.84615 -10 0
4.61538 -10 0
5.38462 -10 0
6.15385 -10 0
6.92308 -10 0
7.69231 -10 0
8.46154 -10 0
10 -10 0
-10 -9.23077 0
-9.23077 -9.23077 0
-8.46154 -9.23077 0
-7.69231 -9.23077 0
-6.92308 -9.23077 0
-6.15385 -9.23077 0
-5.38462 -9.23077 0
-4.61538 -9.23077 0
-3.84615 -9.23077 0
-3.07692 -9.23077 0
-2.30769 -9.23077 0
-1.53846 -9.23077 0
-0.769231 -9.23077 0
5.55112e-016 -9.23077 0
0.769231 -9.23077 0
1.53846 -9.23077 0
2.30769 -9.23077 0
3.07692 -9.23077 0
3.84615 -9.23077 0
4.61538 -9.23077 0
5.38462 -9.23077 0
6.15385 -9.23077 0
6.92308 -9.23077 0
7.69231 -9.23077 0
8.46154 -9.23077 0
10 -9.23077 0
-10 -8.46154 0
-9.23077 -8.46154 0
-8.46154 -8.46154 0
-7.69231 -8.46154 0
-6.92308 -8.46154 0
-6.15385 -8.46154 0
-5.38462 -8.46154 0
-4.61538 -8.46154 0
-3.84615 -8.46154 0
-3.07692 -8.46154 0
-2.30769 -8.46154 0
-1.53846 -8.46154 0
-0.769231 -8.46154 0
5.55112e-016 -8.46154 0
0.769231 -8.46154 0
1.53846 -8.46154 0
2.30769 -8.46154 0
3.07692 -8.46154 0
3.84615 -8.46154 0
4.61538 -8.46154 0
5.38462 -8.46154 0
6.15385 -8.46154 0
6.92308 -8.46154 0
7.69231 -8.46154 0
8.46154 -8.46154 0
10 -8.46154 0
-10 -7.69231 0
-9.23077 -7.69231 0
-8.46154 -7.69231 0
-7.69231 -7.69231 0
-6.92308 -7.69231 0
-6.15385 -7.69231 0
-5.38462 -7.69231 0
-4.61538 -7.69231 0
-3.84615 -7.69231 0
-3.07692 -7.69231 0
-2.30769 -7.69231 0
-1.53846 -7.69231 0
-0.769231 -7.69231 0
5.55112e-016 -7.69231 0
0.769231 -7.69231 0
1.53846 -7.69231 0
2.30769 -7.69231 0
3.07692 -7.69231 0
3.84615 -7.69231 0
4.61538 -7.69231 0
5.38462 -7.69231 0
6.15385 -7.69231 0
6.92308 -7.69231 0
7.69231 -7.69231 0
8.46154 -7.69231 0
10 -7.69231 0
-10 -6.92308 0
-9.23077 -6.92308 0
-8.46154 -6.92308 0
-7.69231 -6.92308 0
-6.92308 -6.92308 0
-6.15385 -6.92308 0
-5.38462 -6.92308 0
-4.61538 -6.92308 0
-3.84615 -6.92308 0
-3.07692 -6.92308 0
-2.30769 -6.92308 0
-1.53846 -6.92308 0
-0.769231 -6.92308 0
5.55112e-016 -6.92308 0
0.769231 -6.92308 0
1.53846 -6.92308 0
2.30769 -6.92308 0
3.07692 -6.92308 0
3.84615 -6.92308 0
4.61538 -6.92308 0
5.38462 -6.92308 0
6.15385 -6.92308 0
6.92308 -6.92308 0
7.69231 -6.92308 0
8.46154 -6.92308 0
10 -6.92308 0
-10 -6.15385 0
-9.23077 -6.15385 0
-8.46154 -6.15385 0
-7.69231 -6.15385 0
-6.92308 -6.15385 0
-6.15385 -6.15385 0
-5.38462 -6.15385 0
-4.61538 -6.15385 0
-3.84615 -6.15385 0
-3.07692 -6.15385 0
-2.30769 -6.15385 0
-1.53846 -6.15385 0
-0.769231 -6.15385 0
5.55112e-016 -6.15385 0
0.769231 -6.15385 0
1.53846 -6.15385 0
2.30769 -6.15385 0
3.07692 -6.15385 0
3.84615 -6.15385 0
4.61538 -6.15385 0
5.38462 -6.15385 0
6.15385 -6.15385 0
6.92308 -6.15385 0
7.69231 -6.15385 0
8.46154 -6.15385 0
10 -6.15385 0
-10 -5.38462 0
-9.23077 -5.38462 0
-8.46154 -5.38462 0
-7.69231 -5.38462 0
-6.92308 -5.38462 0
-6.15385 -5.38462 0
-5.38462 -5.38462 0
-4.61538 -5.38462 0
-3.84615 -5.38462 0
-3.07692 -5.38462 0
-2.30769 -5.38462 0
-1.53846 -5.38462 0
-0.769231 -5.38462 0
5.55112e-016 -5.38462 0
0.769231 -5.38462 0
1.53846 -5.38462 0
2.30769 -5.38462 0
3.07692 -5.38462 0
3.84615 -5.38462 0
4.61538 -5.38462 0
5.38462 -5.38462 0
6.15385 -5.38462 0
6.92308 -5.38462 0
7.69231 -5.38462 0
8.46154 -5.38462 0
10 -5.38462 0
-10 -4.61538 0
-9.23077 -4.61538 0
-8.46154 -4.61538 0
-7.69231 -4.61538 0
-6.92308 -4.61538 0
-6.15385 -4.61538 0
-5.38462 -4.61538 0
-4.61538 -4.61538 0
-3.84615 -4.61538 0
-3.07692 -4.61538 0
-2.30769 -4.61538 0
-1.53846 -4.61538 0
-0.769231 -4.61538 0
5.55112e-016 -4.61538 0
0.769231 -4.61538 0
1.53846 -4.61538 0
2.30769 -4.61538 0
3.07692 -4.61538 0
3.84615 -4.61538 0
4.61538 -4.61538 0
5.38462 -4.61538 0
6.15385 -4.61538 0
6.92308 -4.61538 0
7.69231 -4.61538 0
8.46154 -4.61538 0
10 -4.61538 0
-10 -3.84615 0
-9.23077 -3.84615 0
-8.46154 -3.84615 0
-7.69231 -3.84615 0
-6.92308 -3.84615 0
-6.15385 -3.84615 0
-5.38462 -3.84615 0
-4.61538 -3.84615 0
-3.84615 -3.84615 0
-3.07692 -3.84615 0
-2.30769 -3.84615 0
-1.53846 -3.84615 0
-0.769231 -3.84615 0
5.55112e-016 -3.84615 0
0.769231 -3.84615 0
1.53846 -3.84615 0
2.30769 -3.84615 0
3.07692 -3.84615 0
3.84615 -3.84615 0
4.61538 -3.84615 0
5.38462 -3.84615 0
6.15385 -3.84615 0
6.92308 -3.84615 0
7.69231 -3.84615 0
8.46154 -3.84615 0
10 -3.84615 0
-10 -3.07692 0
-9.23077 -3.07692 0
-8.46154 -3.07692 0
-7.69231 -3.07692 0
-6.92308 -3.07692 0
-6.15385 -3.07692 0
-5.38462 -3.07692 0
-4.61538 -3.07692 0
-3.84615 -3.07692 0
-3.07692 -3.07692 0
-2.30769 -3.07692 0
-1.53846 -3.07692 0
-0.769231 -3.07692 0
5.55112e-016 -3.07692 0
0.769231 -3.07692 0
1.53846 -3.07692 0
2.30769 -3.07692 0
3.07692 -3.07692 0
3.84615 -3.07692 0
4.61538 -3.07692 0
5.38462 -3.07692 0
6.15385 -3.07692 0
6.92308 -3.07692 0
7.69231 -3.07692 0
8.46154 -3.07692 0
10 -3.07692 0
-10 -2.30769 0
-9.23077 -2.30769 0
-8.46154 -2.30769 0
-7.69231 -2.30769 0
-6.92308 -2.30769 0
-6.15385 -2.30769 0
-5.38462 -2.30769 0
-4.61538 -2.30769 0
-3.84615 -2.30769 0
-3.07692 -2.30769 0
-2.30769 -2.30769 0
-1.53846 -2.30769 0
-0.769231 -2.30769 0
5.55112e-016 -2.30769 0
0.769231 -2.30769 0
1.53846 -2.30769 0
2.30769 -2.30769 0
3.07692 -2.30769 0
3.84615 -2.30769 0
4.61538 -2.30769 0
5.38462 -2.30769 0
6.15385 -2.30769 0
6.92308 -2.30769 0
7.69231 -2.30769 0
8.46154 -2.30769 0
10 -2.30769 0
-10 -1.53846 0
-9.23077 -1.53846 0
-8.46154 -1.53846 0
-7.69231 -1.53846 0
-6.92308 -1.53846 0
-6.15385 -1.53846 0
-5.38462 -1.53846 0
-4.61538 -1.53846 0
-3.84615 -1.53846 0
-3.07692 -1.53846 0
-2.30769 -1.53846 0
-1.53846 -1.53846 0
-0.769231 -1.53846 0
5.55112e-016 -1.53846 0
0.769231 -1.53846 0
1.53846 -1.53846 0
2.30769 -1.53846 0
3.07692 -1.53846 0
3.84615 -1.53846 0
4.61538 -1.53846 0
5.38462 -1.53846 0
6.15385 -1.53846 0
6.92308 -1.53846 0
7.69231 -1.53846 0
8.46154 -1.53846 0
10 -1.53846 0
-10 -0.769231 0
-9.23077 -0.769231 0
-8.46154 -0.769231 0
-7.69231 -0.769231 0
-6.92308 -0.769231 0
-6.15385 -0.769231 0
-5.38462 -0.769231 0
-4.61538 -0.769231 0
-3.84615 -0.769231 0
-3.07692 -0.769231 0
-2.30769 -0.769231 0
-1.53846 -0.769231 0
-0.769231 -0.769231 0
5.55112e-016 -0.769231 0
0.769231 -0.769231 0
1.53846 -0.769231 0
2.30769 -0.769231 0
3.07692 -0.769231 0
3.84615 -0.769231 0
4.61538 -0.769231 0
5.38462 -0.769231 0
6.15385 -0.769231 0
6.92308 -0.769231 0
7.69231 -0.769231 0
8.46154 -0.769231 0
10 -0.769231 0
-10 5.55112e-016 0
-9.23077 5.55112e-016 0
-8.46154 5.55112e-016 0
-7.69231 5.55112e-016 0
-6.92308 5.55112e-016 0
-6.15385 5.55112e-016 0
-5.38462 5.55112e-016 0
-4.61538 5.55112e-016 0
-3.84615 5.55112e-016 0
-3.07692 5.55112e-016 0
-2.30769 5.55112e-016 0
-1.53846 5.55112e-016 0
-0.769231 5.55112e-016 0
5.55112e-016 5.55112e-016 0
0.769231 5.55112e-016 0
1.53846 5.55112e-016 0
2.30769 5.55112e-016 0
3.07692 5.55112e-016 0
3.84615 5.55112e-016 0
4.61538 5.55112e-016 0
5.38462 5.55112e-016 0
6.15385 5.55112e-016 0
6.92308 5.55112e-016 0
7.69231 5.55112e-016 0
8.46154 5.55112e-016 0
10 5.55112e-016 0
-10 0.769231 0
-9.23077 0.769231 0
-8.46154 0.769231 0
-7.69231 0.769231 0
-6.92308 0.769231 0
-6.15385 0.769231 0
-5.38462 0.769231 0
-4.61538 0.769231 0
-3.84615 0.769231 0
-3.07692 0.769231 0
-2.30769 0.769231 0
-1.53846 0.769231 0
-0.769231 0.769231 0
5.55112e-016 0.769231 0
0.769231 0.769231 0
1.53846 0.769231 0
2.30769 0.769231 0
3.07692 0.769231 0
3.84615 0.769231 0
4.61538 0.769231 0
5.38462 0.769231 0
6.15385 0.769231 0
6.92308 0.769231 0
7.69231 0.769231 0
8.46154 0.769231 0
10 0.769231 0
-10 1.53846 0
-9.23077 1.53846 0
-8.46154 1.53846 0
-7.69231 1.53846 0
-6.92308 1.53846 0
-6.15385 1.53846 0
-5.38462 1.53846 0
-4.61538 1.53846 0
-3.84615 1.53846 0
-3.07692 1.53846 0
-2.30769 1.53846 0
-1.53846 1.53846 0
-0.769231 1.53846 0
5.55112e-016 1.53846 0
0.769231 1.53846 0
1.53846 1.53846 0
2.30769 1.53846 0
3.07692 1.53846 0
3.84615 1.53846 0
4.61538 1.53846 0
5.38462 1.53846 0
6.15385 1.53846 0
6.92308 1.53846 0
7.69231 1.53846 0
8.46154 1.53846 0
10 1.53846 0
-10 2.30769 0
-9.23077 2.30769 0
-8.46154 2.30769 0
-7.69231 2.30769 0
-6.92308 2.30769 0
-6.15385 2.30769 0
-5.38462 2.30769 0
-4.61538 2.30769 0
-3.84615 2.30769 0
-3.07692 2.30769 0
-2.30769 2.30769 0
-1.53846 2.30769 0
-0.769231 2.30769 0
5.55112e-016 2.30769 0
0.769231 2.30769 0
1.53846 2.30769 0
2.30769 2.30769 0
3.07692 2.30769 0
3.84615 2.30769 0
4.61538 2.30769 0
5.38462 2.30769 0
6.15385 2.30769 0
6.92308 2.30769 0
7.69231 2.30769 0
8.46154 2.30769 0
10 2.30769 0
-10 3.07692 0
-9.23077 3.07692 0
-8.46154 3.07692 0
-7.69231 3.07692 0
-6.92308 3.07692 0
-6.15385 3.07692 0
-5.38462 3.07692 0
-4.61538 3.07692 0
-3.84615 3.07692 0
-3.07692 3.07692 0
-2.30769 3.07692 0
-1.53846 3.07692 0
-0.769231 3.07692 0
5.55112e-016 3.07692 0
0.769231 3.07692 0
1.53846 3.07692 0
2.30769 3.07692 0
3.07692 3.07692 0
3.84615 3.07692 0
4.61538 3.07692 0
5.38462 3.07692 0
6.15385 3.07692 0
6.92308 3.07692 0
7.69231 3.07692 0
8.46154 3.07692 0
10 3.07692 0
-10 3.84615 0
-9.23077 3.84615 0
-8.46154 3.84615 0
-7.69231 3.84615 0
-6.92308 3.84615 0
-6.15385 3.84615 0
-5.38462 3.84615 0
-4.61538 3.84615 0
-3.84615 3.84615 0
-3.07692 3.84615 0
-2.30769 3.84615 0
-1.53846 3.84615 0
-0.769231 3.84615 0
5.55112e-016 3.84615 0
0.769231 3.84615 0
1.53846 3.84615 0
2.30769 3.84615 0
3.07692 3.84615 0
3.84615 3.84615 0
4.61538 3.84615 0
5.38462 3.84615 0
6.15385 3.84615 0
6.92308 3.84615 0
7.69231 3.84615 0
8.46154 3.84615 0
10 3.84615 0
-10 4.61538 0
-9.23077 4.61538 0
-8.46154 4.61538 0
-7.69231 4.61538 0
-6.92308 4.61538 0
-6.15385 4.61538 0
-5.38462 4.61538 0
-4.61538 4.61538 0
-3.84615 4.61538 0
-3.07692 4.61538 0
-2.30769 4.61538 0
-1.53846 4.61538 0
-0.769231 4.61538 0
5.55112e-016 4.61538 0
0.769231 4.61538 0
1.53846 4.61538 0
2.30769 4.61538 0
3.07692 4.61538 0
3.84615 4.61538 0
4.61538 4.61538 0
5.38462 4.61538 0
6.15385 4.61538 0
6.92308 4.61538 0
7.69231 4.61538 0
8.46154 4.61538 0
10 4.61538 0
-10 5.38462 0
-9.23077 5.38462 0
-8.46154 5.38462 0
-7.69231 5.38462 0
-6.92308 5.38462 0
-6.15385 5.38462 0
-5.38462 5.38462 0
-4.61538 5.38462 0
-3.84615 5.38462 0
-3.07692 5.38462 0
-2.30769 5.38462 0
-1.53846 5.38462 0
-0.769231 5.38462 0
5.55112e-016 5.38462 0
0.769231 5.38462 0
1.53846 5.38462 0
2.30769 5.38462 0
3.07692 5.38462 0
3.84615 5.38462 0
4.61538 5.38462 0
5.38462 5.38462 0
6.15385 5.38462 0
6.92308 5.38462 0
7.69231 5.38462 0
8.46154 5.38462 0
10 5.38462 0
-10 6.15385 0
-9.23077 6.15385 0
-8.46154 6.15385 0
-7.69231 6.15385 0
-6.92308 6.15385 0
-6.15385 6.15385 0
-5.38462 6.15385 0
-4.61538 6.15385 0
-3.84615 6.15385 0
-3.07692 6.15385 0
-2.30769 6.15385 0
-1.53846 6.15385 0
-0.769231 6.15385 0
5.55112e-016 6.15385 0
0.769231 6.15385 0
1.53846 6.15385 0
2.30769 6.15385 0
3.07692 6.15385 0
3.84615 6.15385 0
4.61538 6.15385 0
5.38462 6.15385 0
6.15385 6.15385 0
6.92308 6.15385 0
7.69231 6.15385 0
8.46154 6.15385 0
10 6.15385 0
-10 6.92308 0
-9.23077 6.92308 0
-8.46154 6.92308 0
-7.69231 6.92308 0
-6.92308 6.92308 0
-6.15385 6.92308 0
-5.38462 6.92308 0
-4.61538 6.92308 0
-3.84615 6.92308 0
-3.07692 6.92308 0
-2.30769 6.92308 0
-1.53846 6.92308 0
-0.769231 6.92308 0
5.55112e-016 6.92308 0
0.769231 6.92308 0
1.53846 6.92308 0
2.30769 6.92308 0
3.07692 6.92308 0
3.84615 6.92308 0
4.61538 6.92308 0
5.38462 6.92308 0
6.15385 6.92308 0
6.92308 6.92308 0
7.69231 6.92308 0
8.46154 6.92308 0
10 6.92308 0
-10 7.69231 0
-9.23077 7.69231 0
-8.46154 7.69231 0
-7.69231 7.69231 0
-6.92308 7.69231 0
-6.15385 7.69231 0
-5.38462 7.69231 0
-4.61538 7.69231 0
-3.84615 7.69231 0
-3.07692 7.69231 0
-2.30769 7.69231 0
-1.53846 7.69231 0
-0.769231 7.69231 0
5.55112e-016 7.69231 0
0.769231 7.69231 0
1.53846 7.69231 0
2.30769 7.69231 0
3.07692 7.69231 0
3.84615 7.69231 0
4.61538 7.69231 0
5.38462 7.69231 0
6.15385 7.69231 0
6.92308 7.69231 0
7.69231 7.69231 0
8.46154 7.69231 0
10 7.69231 0
-10 8.46154 0
-9.23077 8.46154 0
-8.46154 8.46154 0
-7.69231 8.46154 0
-6.92308 8.46154 0
-6.15385 8.46154 0
-5.38462 8.46154 0
-4.61538 8.46154 0
-3.84615 8.46154 0
-3.07692 8.46154 0
-2.30769 8.46154 0
-1.53846 8.46154 0
-0.769231 8.46154 0
5.55112e-016 8.46154 0
0.769231 8.46154 0
1.53846 8.46154 0
2.30769 8.46154 0
3.07692 8.46154 0
3.84615 8.46154 0
4.61538 8.46154 0
5.38462 8.46154 0
6.15385 8.46154 0
6.92308 8.46154 0
7.69231 8.46154 0
8.46154 8.46154 0
10 8.46154 0
-10 10 0
-9.23077 10 0
-8.46154 10 0
-7.69231 10 0
-6.92308 10 0
-6.15385 10 0
-5.38462 10 0
-4.61538 10 0
-3.84615 10 0
-3.07692 10 0
-2.30769 10 0
-1.53846 10 0
-0.769231 10 0
5.55112e-016 10 0
0.769231 10 0
1.53846 10 0
2.30769 10 0
3.07692 10 0
3.84615 10 0
4.61538 10 0
5.38462 10 0
6.15385 10 0
6.92308 10 0
7.69231 10 0
8.46154 10 0
10 10 0

POINT_DATA 676
SCALARS h double 1
LOOkUP_TABLE default
0.0393241
0.0402374
0.0428345
0.0474507
0.0543489
0.0635337
0.0745289
0.0862572
0.0971632
0.105605
0.110355
0.110957
0.107773
0.101736
0.0939883
0.0855747
0.0772697
0.0695508
0.062652
0.0566486
0.051533
0.0472773
0.0438656
0.0413313
0.0397577
0.0393241
0.0401715
0.0396805
0.0406889
0.0435821
0.0487992
0.0567056
0.0673346
0.080102
0.0936659
0.106116
0.115497
0.120437
0.120534
0.116353
0.109078
0.100061
0.090482
0.0811748
0.0726258
0.0650514
0.0585003
0.0529437
0.0483289
0.0446417
0.0418868
0.0401715
0.0421589
0.0403774
0.0399208
0.0411241
0.044458
0.0504862
0.0596683
0.0720363
0.0868378
0.10239
0.116373
0.126515
0.131341
0.130581
0.125072
0.116289
0.105811
0.094944
0.0845704
0.0751687
0.0669276
0.0598584
0.0539044
0.0489867
0.0450653
0.0421589
0.0451435
0.0421592
0.0403662
0.0400055
0.0414815
0.0453838
0.0523986
0.0630733
0.0774047
0.0944079
0.111991
0.127385
0.138018
0.142382
0.140418
0.133296
0.122813
0.110774
0.0985968
0.0871879
0.0769966
0.0681683
0.0606625
0.0543861
0.0492287
0.0451435
0.0490883
0.0449211
0.0418888
0.0401192
0.0398978
0.0417206
0.0462914
0.0544249
0.0667446
0.0831715
0.102425
0.121946
0.138507
0.149284
0.152818
0.149341
0.140409
0.128149
0.114576
0.101184
0.0888696
0.0780274
0.0687362
0.060906
0.0543939
0.0490883
0.0539917
0.048612
0.0443869
0.041339
0.0396231
0.0395866
0.0418095
0.0471158
0.0564468
0.0704828
0.0890228
0.110433
0.131658
0.149031
0.159552
0.161908
0.156696
0.145885
0.131919
0.116975
0.102574
0.0895627
0.0782549
0.0686574
0.0606247
0.0539917
0.0598971
0.0532195
0.0477936
0.0435484
0.0405172
0.0388936
0.0390767
0.0417325
0.0478045
0.0583517
0.0740817
0.0946248
0.117953
0.14051
0.158255
0.168109
0.169003
0.161958
0.149354
0.133901
0.117872
0.102756
0.089305
0.0777451
0.0680014
0.0598971
0.0668519
0.058758
0.052075
0.0466567
0.0424326
0.0394615
0.0379644
0.0383914
0.0414925
0.0483231
0.0600402
0.0773422
0.0996462
0.124509
0.147911
0.165527
0.174326
0.173576
0.164752
0.150604
0.134027
0.117299
0.101813
0.0882016
0.0765885
0.0668519
0.0748734
0.0652425
0.0572182
0.0506034
0.0452461
0.0410967
0.038228
0.0368877
0.0375742
0.0411138
0.0486583
0.0614322
0.0800805
0.103769
0.129645
0.153299
0.170257
0.177672
0.175237
0.164867
0.149593
0.132373
0.115386
0.0998819
0.0863579
0.0748734
0.0838753
0.0726453
0.063205
0.0553477
0.0488682
0.0436371
0.039615
0.0368894
0.0357328
0.0366859
0.0406388
0.0488142
0.0624611
0.0821204
0.106679
0.132914
0.15615
0.171939
0.177767
0.173794
0.162301
0.146451
0.129117
0.112306
0.0970885
0.0838753
0.0935712
0.0808298
0.0699698
0.0608425
0.0532326
0.0469644
0.0419214
0.0380764
0.0355315
0.0345808
0.0357986
0.0401194
0.0487998
0.0630593
0.083281
0.108068
0.133909
0.156048
0.170261
0.174488
0.169324
0.15727
0.141435
0.124495
0.108226
0.0935712
0.103361
0.089464
0.0773384
0.0669937
0.0582706
0.0509922
0.0450032
0.0402034
0.0365792
0.0342468
0.0335171
0.0349853
0.0396037
0.0486163
0.063151
0.0833892
0.107679
0.132366
0.152822
0.165238
0.168052
0.162185
0.150161
0.13489
0.118762
0.103361
0.112252
0.0979346
0.084957
0.0736069
0.0638723
0.0556395
0.0487611
0.0431061
0.0385933
0.0352241
0.0331263
0.0326211
0.0343086
0.0391264
0.0482532
0.0626675
0.0823296
0.105407
0.128279
0.14666
0.157269
0.159004
0.152947
0.141485
0.127212
0.112252
0.118895
0.105311
0.0922344
0.0803329
0.0698431
0.0607957
0.0531128
0.0466809
0.0413968
0.0372
0.0341058
0.032251
0.0319583
0.033814
0.0387062
0.0476997
0.0615825
0.0801086
0.101374
0.121972
0.138109
0.14707
0.148104
0.142315
0.13182
0.118895
0.121828
0.110424
0.0983402
0.0866343
0.0758638
0.0662851
0.0579616
0.0508557
0.0448909
0.0399929
0.0361216
0.033305
0.0316842
0.031574
0.0335276
0.0383528
0.0469637
0.0599437
0.0768869
0.095936
0.114037
0.127963
0.135526
0.136221
0.131044
0.121828
0.119927
0.112117
0.102308
0.0918068
0.0814749
0.0718391
0.0631674
0.0555602
0.049023
0.0435169
0.0389956
0.0354379
0.0328814
0.0314668
0.0314914
0.033459
0.0380744
0.0460837
0.0578782
0.0729557
0.0896058
0.105207
0.117105
0.123564
0.124218
0.119927
0.112925
0.109631
0.103266
0.0950856
0.0861082
0.0770904
0.068526
0.0607018
0.0537592
0.0477467
0.0426612
0.0384819
0.0352032
0.032869
0.0316146
0.0317119
0.0336039
0.0378814
0.0451253
0.0555674
0.068674
0.0829495
0.0962277
0.106383
0.112039
0.112925
0.101704
0.10298
0.100739
0.0958352
0.0891783
0.0816013
0.0737657
0.0661478
0.0590613
0.0526907
0.0471254
0.042394
0.0384972
0.0354412
0.0332728
0.0321174
0.032216
0.0339457
0.0377849
0.0441679
0.05321
0.0644017
0.0764951
0.0877606
0.0965216
0.101704
0.0881106
0.09308
0.0948898
0.0937645
0.0902205
0.0849283
0.0785619
0.0717162
0.0648686
0.0583678
0.0524414
0.0472159
0.0427467
0.0390508
0.0361426
0.034068
0.0329395
0.0329649
0.0344568
0.0377926
0.0432891
0.0509908
0.0604532
0.0706826
0.080332
0.0881106
0.0743389
0.0815106
0.0865457
0.0890637
0.0890266
0.086706
0.0825684
0.0771718
0.0710779
0.064785
0.0586842
0.0530454
0.0480278
0.0437077
0.0401136
0.0372638
0.0352009
0.0340226
0.0339042
0.0351005
0.0379065
0.0425556
0.0490631
0.057077
0.0658395
0.0743389
0.0621988
0.0699886
0.0769559
0.0823756
0.0857103
0.0867175
0.0854508
0.0822211
0.0775175
0.0719046
0.0659216
0.0600099
0.0544808
0.049521
0.0452219
0.0416188
0.0387304
0.0365936
0.0352911
0.0349691
0.035835
0.0381237
0.0420193
0.0475434
0.054449
0.0621988
0.0526894
0.0598547
0.0673993
0.0746004
0.0806682
0.084921
0.0869086
0.0865021
0.0839073
0.0795946
0.0741685
0.068231
0.0622808
0.0566698
0.0516071
0.0471939
0.0434673
0.0404432
0.0381511
0.0366597
0.0360908
0.0366177
0.0384377
0.041717
0.0465103
0.0526894
0.0460171
0.0518243
0.0588521
0.0666406
0.0744597
0.0814311
0.0866869
0.0895721
0.0898105
0.0875564
0.0833134
0.0777649
0.0715969
0.0653732
0.0594844
0.0541573
0.0494969
0.0455375
0.0422889
0.0397719
0.0380424
0.0372044
0.0374097
0.0388405
0.0416712
0.0460171
0.0419035
0.0460586
0.0518654
0.0592196
0.0676862
0.0764945
0.0846067
0.0909304
0.0946082
0.0952546
0.0930287
0.0885211
0.0825338
0.0758578
0.0691281
0.0627718
0.0570273
0.0519974
0.0477088
0.0441617
0.0413669
0.0393693
0.0382613
0.0381861
0.03933
0.0419035
0.0398101
0.042294
0.04654
0.0527329
0.0608173
0.0703676
0.0804961
0.0899386
0.0973425
0.101657
0.102433
0.0998977
0.0947867
0.0880569
0.0806208
0.0731854
0.0662077
0.059929
0.0544423
0.0497604
0.0458708
0.0427718
0.0405005
0.0391396
0.0388439
0.0398101
0.0393241
0.0402374
0.0428345
0.0474507
0.0543489
0.0635337
0.0745289
0.0862572
0.0971632
0.105605
0.110355
0.110957
0.107773
0.101736
0.0939883
0.0855747
0.0772697
0.0695508
0.062652
0.0566486
0.051533
0.0472773
0.0438656
0.0413313
0.0397577
0.0393241

VECTORS u double
-194.085 179.196 0.0
-193.878 178.623 0.0
-193.674 178.332 0.0
-193.598 178.399 0.0
-193.697 178.843 0.0
-193.972 179.615 0.0
-194.383 180.616 0.0
-194.874 181.727 0.0
-195.382 182.837 0.0
-195.856 183.861 0.0
-196.259 184.74 0.0
-196.57 185.435 0.0
-196.78 185.927 0.0
-196.894 186.209 0.0
-196.921 186.283 0.0
-196.877 186.162 0.0
-196.777 185.862 0.0
-196.634 185.405 0.0
-196.457 184.814 0.0
-196.249 184.112 0.0
-196.006 183.322 0.0
-195.725 182.465 0.0
-195.4 181.578 0.0
-195.025 180.676 0.0
-194.609 179.886 0.0
-194.085 179.196 0.0
-194.879 180.048 0.0
-194.474 179.315 0.0
-194.042 178.711 0.0
-193.71 178.458 0.0
-193.559 178.618 0.0
-193.633 179.196 0.0
-193.929 180.116 0.0
-194.394 181.251 0.0
-194.955 182.459 0.0
-195.539 183.625 0.0
-196.087 184.665 0.0
-196.563 185.525 0.0
-196.942 186.175 0.0
-197.219 186.6 0.0
-197.395 186.8 0.0
-197.479 186.783 0.0
-197.485 186.566 0.0
-197.425 186.17 0.0
-197.31 185.621 0.0
-197.146 184.947 0.0
-196.934 184.173 0.0
-196.679 183.332 0.0
-196.362 182.446 0.0
-196.045 181.563 0.0
-195.59 180.711 0.0
-194.879 180.048 0.0
-195.941 180.741 0.0
-195.326 179.957 0.0
-194.677 179.134 0.0
-194.102 178.587 0.0
-193.676 178.424 0.0
-193.485 178.718 0.0
-193.575 179.457 0.0
-193.928 180.535 0.0
-194.474 181.795 0.0
-195.121 183.084 0.0
-195.788 184.285 0.0
-196.414 185.32 0.0
-196.96 186.145 0.0
-197.405 186.737 0.0
-197.742 187.087 0.0
-197.973 187.202 0.0
-198.105 187.095 0.0
-198.15 186.788 0.0
-198.12 186.308 0.0
-198.021 185.684 0.0
-197.867 184.951 0.0
-197.653 184.135 0.0
-197.401 183.277 0.0
-197.084 182.385 0.0
-196.734 181.527 0.0
-195.941 180.741 0.0
-196.985 181.367 0.0
-196.27 180.476 0.0
-195.476 179.535 0.0
-194.712 178.763 0.0
-194.042 178.293 0.0
-193.564 178.251 0.0
-193.378 178.707 0.0
-193.527 179.621 0.0
-193.974 180.854 0.0
-194.623 182.224 0.0
-195.368 183.573 0.0
-196.123 184.79 0.0
-196.826 185.806 0.0
-197.441 186.587 0.0
-197.949 187.115 0.0
-198.342 187.393 0.0
-198.623 187.429 0.0
-198.798 187.243 0.0
-198.877 186.862 0.0
-198.873 186.318 0.0
-198.792 185.642 0.0
-198.649 184.87 0.0
-198.43 184.026 0.0
-198.166 183.138 0.0
-197.761 182.226 0.0
-196.985 181.367 0.0
-197.929 181.902 0.0
-197.184 180.944 0.0
-196.323 179.926 0.0
-195.443 178.999 0.0
-194.594 178.277 0.0
-193.862 177.9 0.0
-193.374 177.999 0.0
-193.238 178.63 0.0
-193.487 179.721 0.0
-194.055 181.095 0.0
-194.823 182.554 0.0
-195.674 183.943 0.0
-196.52 185.159 0.0
-197.302 186.147 0.0
-197.987 186.88 0.0
-198.558 187.349 0.0
-199.009 187.56 0.0
-199.34 187.529 0.0
-199.558 187.279 0.0
-199.669 186.838 0.0
-199.685 186.24 0.0
-199.605 185.514 0.0
-199.439 184.692 0.0
-199.166 183.786 0.0
-198.755 182.836 0.0
-197.929 181.902 0.0
-198.808 182.365 0.0
-198.051 181.362 0.0
-197.159 180.3 0.0
-196.217 179.275 0.0
-195.258 178.376 0.0
-194.342 177.718 0.0
-193.582 177.449 0.0
-193.123 177.705 0.0
-193.081 178.518 0.0
-193.463 179.775 0.0
-194.173 181.27 0.0
-195.072 182.797 0.0
-196.034 184.208 0.0
-196.974 185.414 0.0
-197.839 186.371 0.0
-198.599 187.058 0.0
-199.236 187.474 0.0
-199.746 187.628 0.0
-200.124 187.536 0.0
-200.374 187.224 0.0
-200.494 186.718 0.0
-200.493 186.05 0.0
-200.357 185.246 0.0
-200.095 184.331 0.0
-199.651 183.343 0.0
-198.808 182.365 0.0
-199.6 182.756 0.0
-198.846 181.734 0.0
-197.943 180.65 0.0
-196.974 179.573 0.0
-195.959 178.565 0.0
-194.935 177.709 0.0
-193.977 177.13 0.0
-193.222 176.985 0.0
-192.834 177.405 0.0
-192.923 178.396 0.0
-193.466 179.803 0.0
-194.334 181.396 0.0
-195.37 182.971 0.0
-196.449 184.392 0.0
-197.489 185.583 0.0
-198.442 186.507 0.0
-199.278 187.151 0.0
-199.979 187.514 0.0
-200.535 187.606 0.0
-200.936 187.443 0.0
-201.177 187.049 0.0
-201.253 186.449 0.0
-201.163 185.68 0.0
-200.906 184.765 0.0
-200.455 183.759 0.0
-199.6 182.756 0.0
-200.293 183.08 0.0
-199.551 182.058 0.0
-198.65 180.972 0.0
-197.673 179.875 0.0
-196.638 178.812 0.0
-195.563 177.841 0.0
-194.492 177.047 0.0
-193.521 176.561 0.0
-192.807 176.55 0.0
-192.531 177.135 0.0
-192.785 178.29 0.0
-193.51 179.824 0.0
-194.546 181.493 0.0
-195.725 183.098 0.0
-196.924 184.517 0.0
-198.065 185.684 0.0
-199.101 186.569 0.0
-200.002 187.159 0.0
-200.743 187.454 0.0
-201.307 187.461 0.0
-201.678 187.197 0.0
-201.848 186.69 0.0
-201.813 185.973 0.0
-201.584 185.084 0.0
-201.14 184.083 0.0
-200.293 183.08 0.0
-200.868 183.334 0.0
-200.149 182.334 0.0
-199.261 181.264 0.0
-198.29 180.172 0.0
-197.254 179.095 0.0
-196.165 178.072 0.0
-195.046 177.156 0.0
-193.953 176.438 0.0
-193 176.057 0.0
-192.367 176.184 0.0
-192.24 176.926 0.0
-192.686 178.223 0.0
-193.607 179.855 0.0
-194.814 181.572 0.0
-196.134 183.185 0.0
-197.446 184.585 0.0
-198.675 185.712 0.0
-199.773 186.537 0.0
-200.704 187.048 0.0
-201.437 187.243 0.0
-201.951 187.134 0.0
-202.232 186.744 0.0
-202.276 186.112 0.0
-202.098 185.277 0.0
-201.688 184.312 0.0
-200.868 183.334 0.0
-201.302 183.511 0.0
-200.623 182.558 0.0
-199.762 181.526 0.0
-198.809 180.46 0.0
-197.784 179.397 0.0
-196.702 178.367 0.0
-195.576 177.405 0.0
-194.435 176.564 0.0
-193.349 175.935 0.0
-192.449 175.665 0.0
-191.935 175.922 0.0
-191.988 176.8 0.0
-192.643 178.205 0.0
-193.759 179.899 0.0
-195.128 181.63 0.0
-196.573 183.223 0.0
-197.976 184.575 0.0
-199.262 185.632 0.0
-200.378 186.365 0.0
-201.287 186.764 0.0
-201.956 186.832 0.0
-202.369 186.59 0.0
-202.519 186.075 0.0
-202.423 185.331 0.0
-202.073 184.434 0.0
-201.302 183.511 0.0
-201.575 183.601 0.0
-200.955 182.721 0.0
-200.137 181.75 0.0
-199.216 180.734 0.0
-198.216 179.71 0.0
-197.155 178.707 0.0
-196.043 177.749 0.0
-194.901 176.868 0.0
-193.766 176.116 0.0
-192.717 175.584 0.0
-191.905 175.421 0.0
-191.542 175.792 0.0
-191.794 176.77 0.0
-192.656 178.237 0.0
-193.952 179.944 0.0
-195.457 181.647 0.0
-196.995 183.181 0.0
-198.448 184.448 0.0
-199.743 185.4 0.0
-200.828 186.01 0.0
-201.664 186.275 0.0
-202.228 186.208 0.0
-202.511 185.845 0.0
-202.527 185.228 0.0
-202.27 184.436 0.0
-201.575 183.601 0.0
-201.663 183.585 0.0
-201.126 182.81 0.0
-200.372 181.927 0.0
-199.5 180.986 0.0
-198.541 180.026 0.0
-197.513 179.076 0.0
-196.432 178.159 0.0
-195.313 177.295 0.0
-194.18 176.511 0.0
-193.078 175.856 0.0
-192.098 175.421 0.0
-191.406 175.351 0.0
-191.213 175.802 0.0
-191.665 176.828 0.0
-192.714 178.298 0.0
-194.153 179.963 0.0
-195.752 181.589 0.0
-197.336 183.022 0.0
-198.792 184.17 0.0
-200.048 184.988 0.0
-201.058 185.46 0.0
-201.79 185.591 0.0
-202.23 185.409 0.0
-202.387 184.953 0.0
-202.252 184.301 0.0
-201.663 183.585 0.0
-201.544 183.448 0.0
-201.117 182.808 0.0
-200.452 182.043 0.0
-199.651 181.204 0.0
-198.749 180.334 0.0
-197.771 179.463 0.0
-196.735 178.615 0.0
-195.657 177.805 0.0
-194.555 177.049 0.0
-193.458 176.371 0.0
-192.417 175.814 0.0
-191.535 175.464 0.0
-190.983 175.458 0.0
-190.964 175.94 0.0
-191.593 176.952 0.0
-192.786 178.36 0.0
-194.319 179.925 0.0
-195.961 181.428 0.0
-197.542 182.724 0.0
-198.956 183.728 0.0
-200.138 184.403 0.0
-201.047 184.741 0.0
-201.663 184.761 0.0
-201.984 184.494 0.0
-201.999 184.012 0.0
-201.544 183.448 0.0
-201.204 183.174 0.0
-200.913 182.698 0.0
-200.362 182.08 0.0
-199.656 181.374 0.0
-198.835 180.621 0.0
-197.926 179.856 0.0
-196.95 179.102 0.0
-195.928 178.374 0.0
-194.877 177.684 0.0
-193.817 177.043 0.0
-192.781 176.467 0.0
-191.828 175.995 0.0
-191.064 175.706 0.0
-190.658 175.723 0.0
-190.797 176.18 0.0
-191.561 177.113 0.0
-192.844 178.395 0.0
-194.414 179.81 0.0
-196.047 181.154 0.0
-197.583 182.29 0.0
-198.923 183.143 0.0
-200.008 183.682 0.0
-200.807 183.911 0.0
-201.31 183.85 0.0
-201.496 183.561 0.0
-201.204 183.174 0.0
-200.634 182.757 0.0
-200.504 182.467 0.0
-200.093 182.024 0.0
-199.508 181.477 0.0
-198.79 180.871 0.0
-197.971 180.238 0.0
-197.077 179.603 0.0
-196.127 178.982 0.0
-195.142 178.384 0.0
-194.141 177.815 0.0
-193.147 177.279 0.0
-192.196 176.791 0.0
-191.349 176.381 0.0
-190.712 176.117 0.0
-190.445 176.112 0.0
-190.708 176.489 0.0
-191.556 177.284 0.0
-192.868 178.391 0.0
-194.42 179.619 0.0
-196 180.78 0.0
-197.458 181.75 0.0
-198.702 182.459 0.0
-199.68 182.885 0.0
-200.369 183.032 0.0
-200.741 182.948 0.0
-200.634 182.757 0.0
-199.838 182.201 0.0
-199.888 182.11 0.0
-199.641 181.862 0.0
-199.201 181.5 0.0
-198.611 181.066 0.0
-197.906 180.592 0.0
-197.113 180.102 0.0
-196.256 179.61 0.0
-195.354 179.125 0.0
-194.428 178.65 0.0
-193.498 178.187 0.0
-192.59 177.737 0.0
-191.741 177.309 0.0
-191.01 176.927 0.0
-190.5 176.651 0.0
-190.35 176.583 0.0
-190.697 176.834 0.0
-191.572 177.45 0.0
-192.856 178.35 0.0
-194.342 179.369 0.0
-195.832 180.342 0.0
-197.187 181.151 0.0
-198.32 181.736 0.0
-199.187 182.072 0.0
-199.748 182.191 0.0
-199.838 182.201 0.0
-198.839 181.526 0.0
-199.08 181.635 0.0
-199.013 181.591 0.0
-198.738 181.433 0.0
-198.299 181.193 0.0
-197.731 180.902 0.0
-197.062 180.579 0.0