# vtk DataFile Version 2.0
Particulate Flow Equations Solution
ASCII
DATASET STRUCTURED_GRID
DIMENSIONS 26 26 1
POINTS 676 double
-10 -10 0
-9.23077 -10 0
-8.46154 -10 0
-7.69231 -10 0
-6.92308 -10 0
-6.15385 -10 0
-5.38462 -10 0
-4.61538 -10 0
-3.84615 -10 0
-3.07692 -10 0
-2.30769 -10 0
-1.53846 -10 0
-0.769231 -10 0
5.55112e-016 -10 0
0.769231 -10 0
1.53846 -10 0
2.30769 -10 0
3.07692 -10 0
3.84615 -10 0
4.61538 -10 0
5.38462 -10 0
6.15385 -10 0
6.92308 -10 0
7.69231 -10 0
8.46154 -10 0
10 -10 0
-10 -9.23077 0
-9.23077 -9.23077 0
-8.46154 -9.23077 0
-7.69231 -9.23077 0
-6.92308 -9.23077 0
-6.15385 -9.23077 0
-5.38462 -9.23077 0
-4.61538 -9.23077 0
-3.84615 -9.23077 0
-3.07692 -9.23077 0
-2.30769 -9.23077 0
-1.53846 -9.23077 0
-0.769231 -9.23077 0
5.55112e-016 -9.23077 0
0.769231 -9.23077 0
1.53846 -9.23077 0
2.30769 -9.23077 0
3.07692 -9.23077 0
3.84615 -9.23077 0
4.61538 -9.23077 0
5.38462 -9.23077 0
6.15385 -9.23077 0
6.92308 -9.23077 0
7.69231 -9.23077 0
8.46154 -9.23077 0
10 -9.23077 0
-10 -8.46154 0
-9.23077 -8.46154 0
-8.46154 -8.46154 0
-7.69231 -8.46154 0
-6.92308 -8.46154 0
-6.15385 -8.46154 0
-5.38462 -8.46154 0
-4.61538 -8.46154 0
-3.84615 -8.46154 0
-3.07692 -8.46154 0
-2.30769 -8.46154 0
-1.53846 -8.46154 0
-0.769231 -8.46154 0
5.55112e-016 -8.46154 0
0.769231 -8.46154 0
1.53846 -8.46154 0
2.30769 -8.46154 0
3.07692 -8.46154 0
3.84615 -8.46154 0
4.61538 -8.46154 0
5.38462 -8.46154 0
6.15385 -8.46154 0
6.92308 -8.46154 0
7.69231 -8.46154 0
8.46154 -8.46154 0
10 -8.46154 0
-10 -7.69231 0
-9.23077 -7.69231 0
-8.46154 -7.69231 0
-7.69231 -7.69231 0
-6.92308 -7.69231 0
-6.15385 -7.69231 0
-5.38462 -7.69231 0
-4.61538 -7.69231 0
-3.84615 -7.69231 0
-3.07692 -7.69231 0
-2.30769 -7.69231 0
-1.53846 -7.69231 0
-0.769231 -7.69231 0
5.55112e-016 -7.69231 0
0.769231 -7.69231 0
1.53846 -7.69231 0
2.30769 -7.69231 0
3.07692 -7.69231 0
3.84615 -7.69231 0
4.61538 -7.69231 0
5.38462 -7.69231 0
6.15385 -7.69231 0
6.92308 -7.69231 0
7.69231 -7.69231 0
8.46154 -7.69231 0
10 -7.69231 0
-10 -6.92308 0
-9.23077 -6.92308 0
-8.46154 -6.92308 0
-7.69231 -6.92308 0
-6.92308 -6.92308 0
-6.15385 -6.92308 0
-5.38462 -6.92308 0
-4.61538 -6.92308 0
-3.84615 -6.92308 0
-3.07692 -6.92308 0
-2.30769 -6.92308 0
-1.53846 -6.92308 0
-0.769231 -6.92308 0
5.55112e-016 -6.92308 0
0.769231 -6.92308 0
1.53846 -6.92308 0
2.30769 -6.92308 0
3.07692 -6.92308 0
3.84615 -6.92308 0
4.61538 -6.92308 0
5.38462 -6.92308 0
6.15385 -6.92308 0
6.92308 -6.92308 0
7.69231 -6.92308 0
8.46154 -6.92308 0
10 -6.92308 0
-10 -6.15385 0
-9.23077 -6.15385 0
-8.46154 -6.15385 0
-7.69231 -6.15385 0
-6.92308 -6.15385 0
-6.15385 -6.15385 0
-5.38462 -6.15385 0
-4.61538 -6.15385 0
-3.84615 -6.15385 0
-3.07692 -6.15385 0
-2.30769 -6.15385 0
-1.53846 -6.15385 0
-0.769231 -6.15385 0
5.55112e-016 -6.15385 0
0.769231 -6.15385 0
1.53846 -6.15385 0
2.30769 -6.15385 0
3.07692 -6.15385 0
3.84615 -6.15385 0
4.61538 -6.15385 0
5.38462 -6.15385 0
6.15385 -6.15385 0
6.92308 -6.15385 0
7.69231 -6.15385 0
8.46154 -6.15385 0
10 -6.15385 0
-10 -5.38462 0
-9.23077 -5.38462 0
-8.46154 -5.38462 0
-7.69231 -5.38462 0
-6.92308 -5.38462 0
-6.15385 -5.38462 0
-5.38462 -5.38462 0
-4.61538 -5.38462 0
-3.84615 -5.38462 0
-3.07692 -5.38462 0
-2.30769 -5.38462 0
-1.53846 -5.38462 0
-0.769231 -5.38462 0
5.55112e-016 -5.38462 0
0.769231 -5.38462 0
1.53846 -5.38462 0
2.30769 -5.38462 0
3.07692 -5.38462 0
3.84615 -5.38462 0
4.61538 -5.38462 0
5.38462 -5.38462 0
6.15385 -5.38462 0
6.92308 -5.38462 0
7.69231 -5.38462 0
8.46154 -5.38462 0
10 -5.38462 0
-10 -4.61538 0
-9.23077 -4.61538 0
-8.46154 -4.61538 0
-7.69231 -4.61538 0
-6.92308 -4.61538 0
-6.15385 -4.61538 0
-5.38462 -4.61538 0
-4.61538 -4.61538 0
-3.84615 -4.61538 0
-3.07692 -4.61538 0
-2.30769 -4.61538 0
-1.53846 -4.61538 0
-0.769231 -4.61538 0
5.55112e-016 -4.61538 0
0.769231 -4.61538 0
1.53846 -4.61538 0
2.30769 -4.61538 0
3.07692 -4.61538 0
3.84615 -4.61538 0
4.61538 -4.61538 0
5.38462 -4.61538 0
6.15385 -4.61538 0
6.92308 -4.61538 0
7.69231 -4.61538 0
8.46154 -4.61538 0
10 -4.61538 0
-10 -3.84615 0
-9.23077 -3.84615 0
-8.46154 -3.84615 0
-7.69231 -3.84615 0
-6.92308 -3.84615 0
-6.15385 -3.84615 0
-5.38462 -3.84615 0
-4.61538 -3.84615 0
-3.84615 -3.84615 0
-3.07692 -3.84615 0
-2.30769 -3.84615 0
-1.53846 -3.84615 0
-0.769231 -3.84615 0
5.55112e-016 -3.84615 0
0.769231 -3.84615 0
1.53846 -3.84615 0
2.30769 -3.84615 0
3.07692 -3.84615 0
3.84615 -3.84615 0
4.61538 -3.84615 0
5.38462 -3.84615 0
6.15385 -3.84615 0
6.92308 -3.84615 0
7.69231 -3.84615 0
8.46154 -3.84615 0
10 -3.84615 0
-10 -3.07692 0
-9.23077 -3.07692 0
-8.46154 -3.07692 0
-7.69231 -3.07692 0
-6.92308 -3.07692 0
-6.15385 -3.07692 0
-5.38462 -3.07692 0
-4.61538 -3.07692 0
-3.84615 -3.07692 0
-3.07692 -3.07692 0
-2.30769 -3.07692 0
-1.53846 -3.07692 0
-0.769231 -3.07692 0
5.55112e-016 -3.07692 0
0.769231 -3.07692 0
1.53846 -3.07692 0
2.30769 -3.07692 0
3.07692 -3.07692 0
3.84615 -3.07692 0
4.61538 -3.07692 0
5.38462 -3.07692 0
6.15385 -3.07692 0
6.92308 -3.07692 0
7.69231 -3.07692 0
8.46154 -3.07692 0
10 -3.07692 0
-10 -2.30769 0
-9.23077 -2.30769 0
-8.46154 -2.30769 0
-7.69231 -2.30769 0
-6.92308 -2.30769 0
-6.15385 -2.30769 0
-5.38462 -2.30769 0
-4.61538 -2.30769 0
-3.84615 -2.30769 0
-3.07692 -2.30769 0
-2.30769 -2.30769 0
-1.53846 -2.30769 0
-0.769231 -2.30769 0
5.55112e-016 -2.30769 0
0.769231 -2.30769 0
1.53846 -2.30769 0
2.30769 -2.30769 0
3.07692 -2.30769 0
3.84615 -2.30769 0
4.61538 -2.30769 0
5.38462 -2.30769 0
6.15385 -2.30769 0
6.92308 -2.30769 0
7.69231 -2.30769 0
8.46154 -2.30769 0
10 -2.30769 0
-10 -1.53846 0
-9.23077 -1.53846 0
-8.46154 -1.53846 0
-7.69231 -1.53846 0
-6.92308 -1.53846 0
-6.15385 -1.53846 0
-5.38462 -1.53846 0
-4.61538 -1.53846 0
-3.84615 -1.53846 0
-3.07692 -1.53846 0
-2.30769 -1.53846 0
-1.53846 -1.53846 0
-0.769231 -1.53846 0
5.55112e-016 -1.53846 0
0.769231 -1.53846 0
1.53846 -1.53846 0
2.30769 -1.53846 0
3.07692 -1.53846 0
3.84615 -1.53846 0
4.61538 -1.53846 0
5.38462 -1.53846 0
6.15385 -1.53846 0
6.92308 -1.53846 0
7.69231 -1.53846 0
8.46154 -1.53846 0
10 -1.53846 0
-10 -0.769231 0
-9.23077 -0.769231 0
-8.46154 -0.769231 0
-7.69231 -0.769231 0
-6.92308 -0.769231 0
-6.15385 -0.769231 0
-5.38462 -0.769231 0
-4.61538 -0.769231 0
-3.84615 -0.769231 0
-3.07692 -0.769231 0
-2.30769 -0.769231 0
-1.53846 -0.769231 0
-0.769231 -0.769231 0
5.55112e-016 -0.769231 0
0.769231 -0.769231 0
1.53846 -0.769231 0
2.30769 -0.769231 0
3.07692 -0.769231 0
3.84615 -0.769231 0
4.61538 -0.769231 0
5.38462 -0.769231 0
6.15385 -0.769231 0
6.92308 -0.769231 0
7.69231 -0.769231 0
8.46154 -0.769231 0
10 -0.769231 0
-10 5.55112e-016 0
-9.23077 5.55112e-016 0
-8.46154 5.55112e-016 0
-7.69231 5.55112e-016 0
-6.92308 5.55112e-016 0
-6.15385 5.55112e-016 0
-5.38462 5.55112e-016 0
-4.61538 5.55112e-016 0
-3.84615 5.55112e-016 0
-3.07692 5.55112e-016 0
-2.30769 5.55112e-016 0
-1.53846 5.55112e-016 0
-0.769231 5.55112e-016 0
5.55112e-016 5.55112e-016 0
0.769231 5.55112e-016 0
1.53846 5.55112e-016 0
2.30769 5.55112e-016 0
3.07692 5.55112e-016 0
3.84615 5.55112e-016 0
4.61538 5.55112e-016 0
5.38462 5.55112e-016 0
6.15385 5.55112e-016 0
6.92308 5.55112e-016 0
7.69231 5.55112e-016 0
8.46154 5.55112e-016 0
10 5.55112e-016 0
-10 0.769231 0
-9.23077 0.769231 0
-8.46154 0.769231 0
-7.69231 0.769231 0
-6.92308 0.769231 0
-6.15385 0.769231 0
-5.38462 0.769231 0
-4.61538 0.769231 0
-3.84615 0.769231 0
-3.07692 0.769231 0
-2.30769 0.769231 0
-1.53846 0.769231 0
-0.769231 0.769231 0
5.55112e-016 0.769231 0
0.769231 0.769231 0
1.53846 0.769231 0
2.30769 0.769231 0
3.07692 0.769231 0
3.84615 0.769231 0
4.61538 0.769231 0
5.38462 0.769231 0
6.15385 0.769231 0
6.92308 0.769231 0
7.69231 0.769231 0
8.46154 0.769231 0
10 0.769231 0
-10 1.53846 0
-9.23077 1.53846 0
-8.46154 1.53846 0
-7.69231 1.53846 0
-6.92308 1.53846 0
-6.15385 1.53846 0
-5.38462 1.53846 0
-4.61538 1.53846 0
-3.84615 1.53846 0
-3.07692 1.53846 0
-2.30769 1.53846 0
-1.53846 1.53846 0
-0.769231 1.53846 0
5.55112e-016 1.53846 0
0.769231 1.53846 0
1.53846 1.53846 0
2.30769 1.53846 0
3.07692 1.53846 0
3.84615 1.53846 0
4.61538 1.53846 0
5.38462 1.53846 0
6.15385 1.53846 0
6.92308 1.53846 0
7.69231 1.53846 0
8.46154 1.53846 0
10 1.53846 0
-10 2.30769 0
-9.23077 2.30769 0
-8.46154 2.30769 0
-7.69231 2.30769 0
-6.92308 2.30769 0
-6.15385 2.30769 0
-5.38462 2.30769 0
-4.61538 2.30769 0
-3.84615 2.30769 0
-3.07692 2.30769 0
-2.30769 2.30769 0
-1.53846 2.30769 0
-0.769231 2.30769 0
5.55112e-016 2.30769 0
0.769231 2.30769 0
1.53846 2.30769 0
2.30769 2.30769 0
3.07692 2.30769 0
3.84615 2.30769 0
4.61538 2.30769 0
5.38462 2.30769 0
6.15385 2.30769 0
6.92308 2.30769 0
7.69231 2.30769 0
8.46154 2.30769 0
10 2.30769 0
-10 3.07692 0
-9.23077 3.07692 0
-8.46154 3.07692 0
-7.69231 3.07692 0
-6.92308 3.07692 0
-6.15385 3.07692 0
-5.38462 3.07692 0
-4.61538 3.07692 0
-3.84615 3.07692 0
-3.07692 3.07692 0
-2.30769 3.07692 0
-1.53846 3.07692 0
-0.769231 3.07692 0
5.55112e-016 3.07692 0
0.769231 3.07692 0
1.53846 3.07692 0
2.30769 3.07692 0
3.07692 3.07692 0
3.84615 3.07692 0
4.61538 3.07692 0
5.38462 3.07692 0
6.15385 3.07692 0
6.92308 3.07692 0
7.69231 3.07692 0
8.46154 3.07692 0
10 3.07692 0
-10 3.84615 0
-9.23077 3.84615 0
-8.46154 3.84615 0
-7.69231 3.84615 0
-6.92308 3.84615 0
-6.15385 3.84615 0
-5.38462 3.84615 0
-4.61538 3.84615 0
-3.84615 3.84615 0
-3.07692 3.84615 0
-2.30769 3.84615 0
-1.53846 3.84615 0
-0.769231 3.84615 0
5.55112e-016 3.84615 0
0.769231 3.84615 0
1.53846 3.84615 0
2.30769 3.84615 0
3.07692 3.84615 0
3.84615 3.84615 0
4.61538 3.84615 0
5.38462 3.84615 0
6.15385 3.84615 0
6.92308 3.84615 0
7.69231 3.84615 0
8.46154 3.84615 0
10 3.84615 0
-10 4.61538 0
-9.23077 4.61538 0
-8.46154 4.61538 0
-7.69231 4.61538 0
-6.92308 4.61538 0
-6.15385 4.61538 0
-5.38462 4.61538 0
-4.61538 4.61538 0
-3.84615 4.61538 0
-3.07692 4.61538 0
-2.30769 4.61538 0
-1.53846 4.61538 0
-0.769231 4.61538 0
5.55112e-016 4.61538 0
0.769231 4.61538 0
1.53846 4.61538 0
2.30769 4.61538 0
3.07692 4.61538 0
3.84615 4.61538 0
4.61538 4.61538 0
5.38462 4.61538 0
6.15385 4.61538 0
6.92308 4.61538 0
7.69231 4.61538 0
8.46154 4.61538 0
10 4.61538 0
-10 5.38462 0
-9.23077 5.38462 0
-8.46154 5.38462 0
-7.69231 5.38462 0
-6.92308 5.38462 0
-6.15385 5.38462 0
-5.38462 5.38462 0
-4.61538 5.38462 0
-3.84615 5.38462 0
-3.07692 5.38462 0
-2.30769 5.38462 0
-1.53846 5.38462 0
-0.769231 5.38462 0
5.55112e-016 5.38462 0
0.769231 5.38462 0
1.53846 5.38462 0
2.30769 5.38462 0
3.07692 5.38462 0
3.84615 5.38462 0
4.61538 5.38462 0
5.38462 5.38462 0
6.15385 5.38462 0
6.92308 5.38462 0
7.69231 5.38462 0
8.46154 5.38462 0
10 5.38462 0
-10 6.15385 0
-9.23077 6.15385 0
-8.46154 6.15385 0
-7.69231 6.15385 0
-6.92308 6.15385 0
-6.15385 6.15385 0
-5.38462 6.15385 0
-4.61538 6.15385 0
-3.84615 6.15385 0
-3.07692 6.15385 0
-2.30769 6.15385 0
-1.53846 6.15385 0
-0.769231 6.15385 0
5.55112e-016 6.15385 0
0.769231 6.15385 0
1.53846 6.15385 0
2.30769 6.15385 0
3.07692 6.15385 0
3.84615 6.15385 0
4.61538 6.15385 0
5.38462 6.15385 0
6.15385 6.15385 0
6.92308 6.15385 0
7.69231 6.15385 0
8.46154 6.15385 0
10 6.15385 0
-10 6.92308 0
-9.23077 6.92308 0
-8.46154 6.92308 0
-7.69231 6.92308 0
-6.92308 6.92308 0
-6.15385 6.92308 0
-5.38462 6.92308 0
-4.61538 6.92308 0
-3.84615 6.92308 0
-3.07692 6.92308 0
-2.30769 6.92308 0
-1.53846 6.92308 0
-0.769231 6.92308 0
5.55112e-016 6.92308 0
0.769231 6.92308 0
1.53846 6.92308 0
2.30769 6.92308 0
3.07692 6.92308 0
3.84615 6.92308 0
4.61538 6.92308 0
5.38462 6.92308 0
6.15385 6.92308 0
6.92308 6.92308 0
7.69231 6.92308 0
8.46154 6.92308 0
10 6.92308 0
-10 7.69231 0
-9.23077 7.69231 0
-8.46154 7.69231 0
-7.69231 7.69231 0
-6.92308 7.69231 0
-6.15385 7.69231 0
-5.38462 7.69231 0
-4.61538 7.69231 0
-3.84615 7.69231 0
-3.07692 7.69231 0
-2.30769 7.69231 0
-1.53846 7.69231 0
-0.769231 7.69231 0
5.55112e-016 7.69231 0
0.769231 7.69231 0
1.53846 7.69231 0
2.30769 7.69231 0
3.07692 7.69231 0
3.84615 7.69231 0
4.61538 7.69231 0
5.38462 7.69231 0
6.15385 7.69231 0
6.92308 7.69231 0
7.69231 7.69231 0
8.46154 7.69231 0
10 7.69231 0
-10 8.46154 0
-9.23077 8.46154 0
-8.46154 8.46154 0
-7.69231 8.46154 0
-6.92308 8.46154 0
-6.15385 8.46154 0
-5.38462 8.46154 0
-4.61538 8.46154 0
-3.84615 8.46154 0
-3.07692 8.46154 0
-2.30769 8.46154 0
-1.53846 8.46154 0
-0.769231 8.46154 0
5.55112e-016 8.46154 0
0.769231 8.46154 0
1.53846 8.46154 0
2.30769 8.46154 0
3.07692 8.46154 0
3.84615 8.46154 0
4.61538 8.46154 0
5.38462 8.46154 0
6.15385 8.46154 0
6.92308 8.46154 0
7.69231 8.46154 0
8.46154 8.46154 0
10 8.46154 0
-10 10 0
-9.23077 10 0
-8.46154 10 0
-7.69231 10 0
-6.92308 10 0
-6.15385 10 0
-5.38462 10 0
-4.61538 10 0
-3.84615 10 0
-3.07692 10 0
-2.30769 10 0
-1.53846 10 0
-0.769231 10 0
5.55112e-016 10 0
0.769231 10 0
1.53846 10 0
2.30769 10 0
3.07692 10 0
3.84615 10 0
4.61538 10 0
5.38462 10 0
6.15385 10 0
6.92308 10 0
7.69231 10 0
8.46154 10 0
10 10 0

POINT_DATA 676
SCALARS h double 1
LOOkUP_TABLE default
6.35277e-005
7.4525e-005
7.41176e-005
6.21309e-005
5.03721e-005
7.61221e-005
0.000126727
0.000111857
0.000177419
0.000218023
7.5102e-005
4.9788e-005
0.000160694
0.000447877
0.00147761
0.00369776
0.00482016
0.00619338
0.00136734
5.52768e-005
0.00012697
7.73044e-005
4.905e-005
5.9355e-005
6.16899e-005
6.35277e-005
7.3867e-005
8.65879e-005
8.70075e-005
7.30441e-005
5.92452e-005
8.88685e-005
0.000145355
6.47852e-005
0.0012874
0.00238677
0.000646196
0.000114652
0.000185237
0.000322107
0.000285561
0.000439695
0.000449684
0.000818295
0.000234929
0.000122026
0.000149271
9.03582e-005
5.69834e-005
6.91088e-005
7.21106e-005
7.3867e-005
7.34535e-005
8.51564e-005
8.53903e-005
7.20574e-005
5.85803e-005
8.83054e-005
0.000149677
0.000113959
0.00652016
0.0166982
0.00634061
0.00129898
0.000235802
9.0551e-005
5.54267e-005
7.03911e-005
6.39901e-005
7.42258e-005
3.36488e-005
0.00013314
0.000149937
9.0498e-005
5.6901e-005
6.924e-005
7.25498e-005
7.34535e-005
6.16843e-005
7.14992e-005
7.13604e-005
6.01775e-005
4.90138e-005
7.94995e-005
0.000203614
0.00150931
0.0237104
0.0737547
0.0360208
0.00985302
0.00822681
0.00303359
0.000993567
0.000107471
-1.62443e-005
0.000391042
0.000434245
6.04588e-005
0.000110687
7.55625e-005
4.79952e-005
5.83838e-005
6.09532e-005
6.16843e-005
4.99277e-005
5.80541e-005
5.78774e-005
4.88355e-005
3.84993e-005
8.78566e-005
-0.000357186
0.0241105
0.0667304
0.208599
0.136815
0.0449102
0.0368282
-0.0150899
-0.00930998
0.0019131
0.00220892
0.00471098
0.002615
0.000763309
0.000164827
7.41075e-005
3.8454e-005
4.72505e-005
4.92448e-005
4.99277e-005
7.5181e-005
8.78217e-005
8.78416e-005
7.37628e-005
5.96794e-005
0.000172606
0.00129058
0.0888611
0.146367
0.379826
0.380037
0.13098
0.243288
0.3933
0.140691
-0.0188019
-0.0113451
-0.0216811
-0.0176371
-0.00648729
0.000107805
0.000132503
5.70061e-005
7.04929e-005
7.41166e-005
7.5181e-005
0.000123405
0.000146167
0.000146207
0.000122347
0.000104313
-0.000236462
0.0111494
0.181932
0.246552
0.454544
0.875579
0.575642
0.585931
0.746863
0.307358
0.00956702
0.0119833
0.0261618
0.051982
0.0481927
0.0214606
0.00383339
0.000258107
0.000108144
0.000122435
0.000123405
3.81695e-005
0.000123198
0.00013085
0.000113162
0.000222601
0.00902828
0.0398257
0.243938
0.307163
0.247168
0.367848
0.3021
0.392948
0.57553
0.289232
0.0622035
0.0499589
0.131355
0.230743
0.228995
0.110206
0.0170638
0.00150584
0.000648536
0.000353262
3.81695e-005
0.00178249
0.000310671
0.000103398
2.5957e-005
0.00110028
-0.00516704
0.0625695
0.235538
0.309808
0.144013
0.0171224
0.00751164
0.121049
0.26469
0.174947
0.115831
0.0556996
0.208708
0.323346
0.285336
0.168874
0.0883485
0.0479338
0.0220981
0.00746007
0.00178249
0.00438876
0.000509257
9.86686e-005
2.99264e-005
0.00263867
-0.0209621
0.0599585
0.143363
0.212223
0.17215
0.0760376
0.0286788
0.0269755
0.0755786
0.0743482
0.107305
0.0458392
0.179804
0.200417
0.221975
0.350496
0.333526
0.218593
0.0927678
0.0250864
0.00438876
0.00132494
0.000137685
5.00495e-005
-0.000212255
-0.00309037
-0.032989
0.240808
0.0492662
0.0114787
0.00812869
0.0135949
0.028133
0.020184
0.0273965
0.0311795
0.0633433
0.0299106
0.0882045
0.0619334
0.314536
0.754368
0.386401
0.157568
0.0476874
0.00988822
0.00132494
0.000198684
6.34031e-005
0.000228407
0.00221377
0.0112482
0.0236728
0.305344
0.151415
0.0354045
0.00451646
0.00520798
0.0309439
0.019243
0.077343
0.0208371
0.0383171
0.0117045
0.0233327
0.0102818
0.282612
0.5835
0.146599
0.0526307
0.012685
0.00192497
0.000198684
0.000148779
0.000177997
0.0001108
0.00376916
0.0345635
0.239121
0.591872
0.357412
0.113678
0.0240221
0.00106181
0.0773338
1.28541
3.11604
1.28538
0.0795186
0.000956086
0.0213891
0.103933
0.371963
0.577992
0.21542
0.0086553
0.00380756
0.000236894
0.000148779
0.000257852
0.000364879
0.00095863
0.00970686
0.0209564
0.560343
1.05058
0.578039
0.203198
0.0537831
0.00411637
0.256105
3.79025
9.15598
3.78796
0.255043
-0.00844528
0.0768371
0.24806
0.55728
0.72729
0.367148
-0.0171806
0.00267056
7.2945e-005
0.000257852
0.00017398
0.000635779
0.00487437
0.0277579
0.101195
0.624642
0.888732
0.189601
0.0461365
0.0133642
0.0021603
0.0973477
2.11989
5.67623
2.11941
0.102659
0.0247556
0.0830185
0.192011
0.324199
0.347516
0.159974
-0.0107401
0.00119055
4.4341e-005
0.00017398
0.000139621
0.0015143
0.0124315
0.0673326
0.224868
0.434485
0.358124
0.0878194
0.00710286
0.0223212
0.0113133
0.035807
0.0207874
0.176626
0.0237997
0.0437823
0.0487435
0.0870577
0.0990156
0.0482196
0.0065266
-0.0109146
0.0014348
4.49916e-005
5.66812e-005
0.000139621
0.000138805
0.00206015
0.0174021
0.0844065
0.235762
0.359674
0.285062
0.119383
0.0493012
0.0783272
0.00808946
0.0183885
0.00947921
0.0166184
0.0102371
0.0286178
0.0367343
0.0503617
0.0572502
0.0414569
0.00733411
-0.0093415
0.0020657
8.30478e-005
4.70118e-005
0.000138805
0.000280829
0.00296792
0.0188431
0.0731189
0.171436
0.239557
0.220332
0.194235
0.215187
0.167203
0.0135801
0.00836525
0.0271193
0.0541213
0.00917823
0.0305444
0.0968485
0.190835
0.209407
0.123088
0.0202674
-0.0193002
0.00438811
-0.000100637
5.64484e-005
0.000280829
0.000150888
0.000992146
0.00456729
0.0141938
0.0321057
0.0625287
0.129887
0.250489
0.318402
0.206941
0.00325625
0.0333571
0.122119
0.206489
0.038277
0.0109837
0.0776816
0.212105
0.320976
0.211358
0.0422905
-0.0180851
0.00283259
8.32183e-005
3.73621e-005
0.000150888
0.000109626
8.81663e-005
7.05926e-005
0.00110985
0.00242219
0.00849063
0.0661015
0.18322
0.226722
0.149047
0.053504
0.156378
0.373666
0.562415
0.136534
0.0685662
0.112389
0.191074
0.294698
0.212239
0.0433165
-0.00587844
0.000961853
3.99498e-005
0.000114464
0.000109626
0.000129606
0.000150042
0.000149265
5.80165e-005
8.22223e-005
0.000788301
0.00811049
0.0302784
0.0555578
0.0741134
0.295823
0.315523
0.616961
1.03464
0.780858
0.293008
0.245854
0.210061
0.176341
0.108748
0.0219027
0.000590046
0.000201983
9.35608e-005
0.000127697
0.000129606
7.84685e-005
9.15297e-005
9.01621e-005
7.15295e-005
7.10136e-005
0.000140929
0.000325034
-0.000339122
-0.00931131
-0.0194491
-0.00443851
0.0349743
0.253345
0.586516
0.620997
0.406746
0.341476
0.235275
0.0891031
0.0259666
0.00559564
0.000218617
7.70443e-005
7.12261e-005
7.64569e-005
7.84685e-005
4.9571e-005
5.83865e-005
5.76122e-005
4.8062e-005
3.9089e-005
5.27656e-005
4.92094e-005
6.35125e-005
0.000759103
0.00271871
0.00121872
0.0164756
0.0120192
0.0309483
0.134626
0.260766
0.264096
0.189323
0.0433861
0.00184781
0.000681391
7.11456e-005
3.77483e-005
4.60186e-005
4.78319e-005
4.9571e-005
5.98547e-005
7.01428e-005
6.89344e-005
5.75995e-005
4.67609e-005
7.15547e-005
0.000121284
0.000101009
3.00665e-005
0.000362901
2.37413e-005
0.00220136
0.00346628
0.0133973
0.0422026
0.0987119
0.116007
0.0960851
0.0185414
0.000506167
0.000106293
7.39546e-005
4.64787e-005
5.58502e-005
5.79923e-005
5.98547e-005
6.23124e-005
7.28672e-005
7.15541e-005
5.99592e-005
4.86984e-005
7.40463e-005
0.00012328
0.00011122
7.64282e-005
3.7483e-005
6.32601e-005
0.000116727
0.000185431
0.00186763
0.00918798
0.0232734
0.0301938
0.0304755
0.00595232
5.55471e-005
0.000114838
7.59253e-005
4.84831e-005
5.84652e-005
6.06429e-005
6.23124e-005
6.35277e-005
7.4525e-005
7.41176e-005
6.21309e-005
5.03721e-005
7.61221e-005
0.000126727
0.000111857
0.000177419
0.000218023
7.5102e-005
4.9788e-005
0.000160694
0.000447877
0.00147761
0.00369776
0.00482016
0.00619338
0.00136734
5.52768e-005
0.00012697
7.73044e-005
4.905e-005
5.9355e-005
6.16899e-005
6.35277e-005

VECTORS u double
4.2181 4.23094 0.0
4.98678 1.72455 0.0
6.4976 2.2652 0.0
7.48765 2.68373 0.0
15.5785 2.93689 0.0
23.9314 3.01386 0.0
16.3829 3.01844 0.0
0.615854 3.35946 0.0
13.117 -18.8685 0.0
17.3793 -16.4491 0.0
2.29882 -0.541346 0.0
17.9096 3.98338 0.0
15.0766 8.58642 0.0
-14.9203 13.3634 0.0
-35.3268 24.6578 0.0
-35.7777 35.4563 0.0
-29.7602 43.8398 0.0
-32.3397 46.5333 0.0
-26.0448 43.4634 0.0
18.9076 -18.5103 0.0
-14.2497 5.27645 0.0
-22.3133 5.57129 0.0
-14.2299 5.73188 0.0
-5.45757 6.10589 0.0
-4.79598 6.76815 0.0
4.2181 4.23094 0.0
6.6256 4.98252 0.0
6.84152 3.18304 0.0
7.47446 2.99486 0.0
8.09252 3.20297 0.0
15.9282 3.40943 0.0
24.1991 3.47434 0.0
16.6736 3.58974 0.0
-8.35664 20.854 0.0
22.8964 -38.2567 0.0
29.1376 -35.2166 0.0
23.5603 -24.3016 0.0
19.5758 -6.8243 0.0
20.3422 -1.94918 0.0
0.758303 0.864426 0.0
-24.0707 9.35199 0.0
-32.7257 27.7894 0.0
-22.0505 34.9849 0.0
-26.8664 37.1848 0.0
-16.6527 29.7051 0.0
1.51467 5.79657 0.0
-14.1288 6.46911 0.0
-22.0114 6.5087 0.0
-13.81 6.60076 0.0
-4.50231 6.81978 0.0
-3.58635 6.96011 0.0
6.6256 4.98252 0.0
6.13655 6.46266 0.0
6.8766 5.5236 0.0
7.83064 5.11747 0.0
8.46317 5.07645 0.0
16.1759 5.14525 0.0
24.2783 5.23808 0.0
14.5813 8.91333 0.0
-20.7401 56.6921 0.0
26.2962 -43.35 0.0
32.7227 -41.016 0.0
28.0778 -30.1934 0.0
23.206 -20.0513 0.0
22.7575 -29.1357 0.0
7.05974 -29.4606 0.0
-17.2177 -25.9747 0.0
-24.4953 9.44111 0.0
-6.48192 2.82286 0.0
-36.5412 -8.69132 0.0
-26.8697 -25.1665 0.0
1.17936 7.34193 0.0
-13.8343 7.8385 0.0
-21.7471 7.80533 0.0
-13.5291 7.7476 0.0
-4.08348 7.74276 0.0
-3.32418 7.51062 0.0
6.13655 6.46266 0.0
5.74315 7.40882 0.0
6.64586 6.82447 0.0
7.83991 6.44491 0.0
8.56828 6.30705 0.0
16.294 6.29229 0.0
23.4064 6.42903 0.0
10.8621 8.82076 0.0
2.5137 13.8676 0.0
29.3084 -45.9989 0.0
36.0453 -46.2319 0.0
28.9708 -31.5383 0.0
23.1766 -21.0963 0.0
22.7533 22.3652 0.0
3.83433 30.6423 0.0
-17.635 31.9618 0.0
-17.4559 34.9409 0.0
63.7893 145.082 0.0
18.3625 40.297 0.0
18.0237 39.6426 0.0
-11.6211 -17.2898 0.0
-16.0131 5.5856 0.0
-21.6886 8.46171 0.0
-13.4141 8.42593 0.0
-4.0394 8.32973 0.0
-3.44262 8.05411 0.0
5.74315 7.40882 0.0
5.50763 15.3669 0.0
6.44649 15.1002 0.0
7.76212 14.8664 0.0
8.57712 14.7373 0.0
16.1628 14.5882 0.0
22.8593 13.7024 0.0
21.9493 -47.4971 0.0
25.1257 -29.0462 0.0
33.1082 -47.7791 0.0
39.572 -51.2112 0.0
28.3611 -30.5354 0.0
22.3995 -20.1448 0.0
25.1418 22.6348 0.0
-12.7412 37.9408 0.0
-19.5028 34.0693 0.0
-18.9508 52.2141 0.0
22.3507 50.2481 0.0
24.4461 50.7946 0.0
23.4126 48.0547 0.0
21.4129 44.5771 0.0
-0.467288 32.419 0.0
-19.3873 18.6324 0.0
-13.4152 15.7412 0.0
-4.10748 15.8785 0.0
-3.59361 15.6978 0.0
5.50763 15.3669 0.0
5.41991 23.9765 0.0
6.37651 23.7683 0.0
7.77258 23.5641 0.0
8.53851 23.3403 0.0
16.9658 25.0056 0.0
20.3548 10.294 0.0
32.3184 -1.39301 0.0
35.1737 -38.506 0.0
38.3736 -49.2553 0.0
42.1442 -53.6359 0.0
24.8211 -25.0821 0.0
20.893 -14.6566 0.0
18.8003 28.2813 0.0
1.18294 34.6689 0.0
-15.4615 34.248 0.0
-9.78226 59.4533 0.0
20.4364 63.5105 0.0
32.1811 64.6064 0.0
32.319 59.6974 0.0
30.3013 55.1177 0.0
-21.7928 -90.0574 0.0
0.204213 23.1691 0.0
-11.6343 26.0124 0.0
-4.27957 24.3642 0.0
-3.74494 24.1259 0.0
5.41991 23.9765 0.0
5.08233 16.5635 0.0
6.35316 16.4719 0.0
7.7997 16.2543 0.0
8.60714 15.8942 0.0
18.5878 16.933 0.0
66.8982 -37.0093 0.0
40.5906 -17.249 0.0
46.0045 -45.2984 0.0
44.8641 -49.9885 0.0
41.9451 -50.6216 0.0
18.3636 -15.9423 0.0
19.481 2.01505 0.0
20.9623 21.6652 0.0
2.824 32.1417 0.0
-15.4268 34.4272 0.0
24.3877 83.6094 0.0
20.3155 89.6489 0.0
46.6059 85.861 0.0
46.1592 72.2424 0.0
40.8074 60.5505 0.0
33.3571 50.3878 0.0
23.0725 41.241 0.0
5.61542 29.1517 0.0
-11.6964 16.5795 0.0
-8.44454 15.2578 0.0
5.08233 16.5635 0.0
-14.6248 -16.6862 0.0
5.34381 0.1682 0.0
7.70858 0.527626 0.0
10.0168 0.157033 0.0
36.9407 0.178807 0.0
49.0411 -27.6942 0.0
50.1533 -27.5591 0.0
56.1077 -47.7439 0.0
51.8667 -48.0758 0.0
45.8258 -48.6599 0.0
25.8306 -27.5585 0.0
23.0216 -9.91801 0.0
21.4978 17.0604 0.0
2.63326 30.5102 0.0
-15.7941 34.9508 0.0
12.2338 81.1254 0.0
10.3315 73.1877 0.0
44.7349 75.1805 0.0
52.6181 68.9557 0.0
51.3028 59.4278 0.0
42.5609 49.314 0.0
19.5659 39.304 0.0
7.51476 29.0344 0.0
21.4777 21.2551 0.0
29.2309 19.9308 0.0
-14.6248 -16.6862 0.0
45.5946 23.1809 0.0
32.9738 16.4246 0.0
6.04717 5.21634 0.0
-36.668 19.0485 0.0
42.1295 -12.063 0.0
50.47 -17.7618 0.0
56.8104 -31.1077 0.0
62.9981 -45.0127 0.0
57.888 -43.334 0.0
50.7914 -29.9168 0.0
63.4238 -5.93584 0.0
21.8203 0.141197 0.0
19.963 19.3572 0.0
1.45803 29.6448 0.0
-15.9563 35.8199 0.0
5.75 68.7807 0.0
0.338756 68.6914 0.0
44.9769 68.519 0.0
50.8231 62.7223 0.0
50.9019 54.0471 0.0
50.8147 45.6352 0.0
53.495 38.7523 0.0
55.1485 33.2537 0.0
53.3818 29.1482 0.0
50.136 26.0941 0.0
45.5946 23.1809 0.0
41.5276 28.6533 0.0
31.2937 22.3123 0.0
4.32027 10.0601 0.0
-29.2827 22.8736 0.0
43.2955 -16.2888 0.0
46.496 -19.3958 0.0
43.5114 -19.8466 0.0
62.8737 -37.5082 0.0
60.4185 -39.5643 0.0
52.571 -35.6637 0.0
40.8177 -29.7757 0.0
13.0078 -32.5072 0.0
8.65288 2.15317 0.0
-0.0589171 17.7641 0.0
-12.8464 28.7024 0.0
1.37015 49.5456 0.0
1.03589 58.7194 0.0
41.8023 59.8588 0.0
43.2036 55.6386 0.0
50.1531 46.4258 0.0
54.7333 40.7428 0.0
59.8697 40.6211 0.0
58.1942 38.1299 0.0
52.9233 34.7162 0.0
47.0869 31.5693 0.0
41.5276 28.6533 0.0
31.1768 24.6952 0.0
16.252 10.0493 0.0
11.1334 -6.33172 0.0
-8.39959 13.5323 0.0
-3.96412 10.5835 0.0
-4.91495 8.1207 0.0
-0.356647 5.53484 0.0
-19.928 28.5067 0.0
-36.8722 42.073 0.0
-14.0708 15.9802 0.0
6.68793 -34.4048 0.0
-0.229347 -40.8317 0.0
-10.9275 -25.6952 0.0
0.059908 -15.5815 0.0
3.9075 -6.0635 0.0
0.247392 2.37628 0.0
8.29659 18.4694 0.0
34.4515 47.0742 0.0
34.5141 51.3205 0.0
29.841 26.4709 0.0
19.3077 19.8719 0.0
27.975 24.6013 0.0
34.0187 27.4339 0.0
35.5172 27.878 0.0
34.4158 27.0761 0.0
31.1768 24.6952 0.0
18.4367 21.6695 0.0
4.95454 17.9966 0.0
-8.28959 19.8078 0.0
-12.8811 21.2096 0.0
-13.4616 22.2725 0.0
-8.37376 25.7429 0.0
10.4554 22.2869 0.0
6.78388 26.7026 0.0
8.77632 23.6666 0.0
-2.92217 9.72118 0.0
-9.30877 -44.2224 0.0
10.739 -26.5546 0.0
-10.7532 -22.3803 0.0
0.123202 17.2344 0.0
11.1137 -22.2288 0.0
-8.16814 -23.7434 0.0
12.7871 -23.0798 0.0
24.8672 25.813 0.0
7.99947 44.977 0.0
12.1803 24.3077 0.0
0.183739 21.6125 0.0
16.045 22.08 0.0
21.6397 23.2837 0.0
23.1659 24.3035 0.0
23.3576 24.3765 0.0
18.4367 21.6695 0.0
8.1191 20.0001 0.0
-0.3196 18.3651 0.0
-23.6905 -5.56971 0.0
23.6388 15.8113 0.0
22.0212 20.9992 0.0
28.8295 19.1123 0.0
21.5914 20.5454 0.0
19.4091 22.9279 0.0
19.3127 23.4453 0.0
17.6285 20.3404 0.0
-14.1641 25.4824 0.0
22.5061 12.1055 0.0
16.2874 22.7489 0.0
-0.0380749 25.0449 0.0
-16.3776 22.7574 0.0
-22.7658 12.7748 0.0
18.0288 -2.13221 0.0
-13.4845 15.6906 0.0
-18.0344 23.2685 0.0
-14.2565 24.651 0.0
-19.0949 24.3826 0.0
-25.6996 22.1837 0.0
28.9343 33.7088 0.0
2.87932 27.3108 0.0
12.6497 23.4505 0.0
8.1191 20.0001 0.0
8.45909 1.42895 0.0
-1.27859 -4.0418 0.0
-13.8079 -30.3022 0.0
-2.66122 -20.9661 0.0
-25.4176 -29.0111 0.0
28.4304 -0.985883 0.0
21.4487 -2.25328 0.0
22.685 2.45306 0.0
23.621 4.78892 0.0
24.4645 5.14663 0.0
23.4147 10.5647 0.0
22.9595 5.36967 0.0
16.7816 9.18661 0.0
-0.0374308 10.9212 0.0
-16.8648 9.18741 0.0
-23.1376 5.52856 0.0
-7.44236 -11.4328 0.0
-30.1226 3.74021 0.0
-29.3375 5.69713 0.0
-29.2147 7.52161 0.0
-30.8668 8.19281 0.0
-34.0805 6.25735 0.0
-38.6971 -0.224412 0.0
-29.7984 6.69857 0.0
29.0472 1.19234 0.0
8.45909 1.42895 0.0
5.34867 -19.9297 0.0
-14.6994 -32.3117 0.0
-22.2977 -38.1549 0.0
-23.8646 -38.5835 0.0
-21.5533 -37.7292 0.0
3.14829 -27.7027 0.0
-5.29447 -29.9798 0.0
2.83552 -18.4058 0.0
13.9975 -12.2575 0.0
10.3987 -10.5278 0.0
-17.3044 32.8049 0.0
21.4697 -3.22422 0.0
15.543 -8.25596 0.0
-0.0361781 -7.53306 0.0
-15.6291 -8.2625 0.0
-21.8245 -4.19648 0.0
-33.5136 -11.6494 0.0
-37.7381 -15.0548 0.0
-36.8217 -14.3382 0.0
-35.273 -13.0805 0.0
-34.3282 -11.9682 0.0
-34.143 -11.9737 0.0
-34.111 -15.4303 0.0
-31.0342 -15.4608 0.0
29.507 -18.5623 0.0
5.34867 -19.9297 0.0