# vtk DataFile Version 2.0
Particulate Flow Equations Solution
ASCII
DATASET STRUCTURED_GRID
DIMENSIONS 26 26 1
POINTS 676 double
-10 -10 0
-9.23077 -10 0
-8.46154 -10 0
-7.69231 -10 0
-6.92308 -10 0
-6.15385 -10 0
-5.38462 -10 0
-4.61538 -10 0
-3.84615 -10 0
-3.07692 -10 0
-2.30769 -10 0
-1.53846 -10 0
-0.769231 -10 0
5.55112e-016 -10 0
0.769231 -10 0
1.53846 -10 0
2.30769 -10 0
3.07692 -10 0
3.84615 -10 0
4.61538 -10 0
5.38462 -10 0
6.15385 -10 0
6.92308 -10 0
7.69231 -10 0
8.46154 -10 0
10 -10 0
-10 -9.23077 0
-9.23077 -9.23077 0
-8.46154 -9.23077 0
-7.69231 -9.23077 0
-6.92308 -9.23077 0
-6.15385 -9.23077 0
-5.38462 -9.23077 0
-4.61538 -9.23077 0
-3.84615 -9.23077 0
-3.07692 -9.23077 0
-2.30769 -9.23077 0
-1.53846 -9.23077 0
-0.769231 -9.23077 0
5.55112e-016 -9.23077 0
0.769231 -9.23077 0
1.53846 -9.23077 0
2.30769 -9.23077 0
3.07692 -9.23077 0
3.84615 -9.23077 0
4.61538 -9.23077 0
5.38462 -9.23077 0
6.15385 -9.23077 0
6.92308 -9.23077 0
7.69231 -9.23077 0
8.46154 -9.23077 0
10 -9.23077 0
-10 -8.46154 0
-9.23077 -8.46154 0
-8.46154 -8.46154 0
-7.69231 -8.46154 0
-6.92308 -8.46154 0
-6.15385 -8.46154 0
-5.38462 -8.46154 0
-4.61538 -8.46154 0
-3.84615 -8.46154 0
-3.07692 -8.46154 0
-2.30769 -8.46154 0
-1.53846 -8.46154 0
-0.769231 -8.46154 0
5.55112e-016 -8.46154 0
0.769231 -8.46154 0
1.53846 -8.46154 0
2.30769 -8.46154 0
3.07692 -8.46154 0
3.84615 -8.46154 0
4.61538 -8.46154 0
5.38462 -8.46154 0
6.15385 -8.46154 0
6.92308 -8.46154 0
7.69231 -8.46154 0
8.46154 -8.46154 0
10 -8.46154 0
-10 -7.69231 0
-9.23077 -7.69231 0
-8.46154 -7.69231 0
-7.69231 -7.69231 0
-6.92308 -7.69231 0
-6.15385 -7.69231 0
-5.38462 -7.69231 0
-4.61538 -7.69231 0
-3.84615 -7.69231 0
-3.07692 -7.69231 0
-2.30769 -7.69231 0
-1.53846 -7.69231 0
-0.769231 -7.69231 0
5.55112e-016 -7.69231 0
0.769231 -7.69231 0
1.53846 -7.69231 0
2.30769 -7.69231 0
3.07692 -7.69231 0
3.84615 -7.69231 0
4.61538 -7.69231 0
5.38462 -7.69231 0
6.15385 -7.69231 0
6.92308 -7.69231 0
7.69231 -7.69231 0
8.46154 -7.69231 0
10 -7.69231 0
-10 -6.92308 0
-9.23077 -6.92308 0
-8.46154 -6.92308 0
-7.69231 -6.92308 0
-6.92308 -6.92308 0
-6.15385 -6.92308 0
-5.38462 -6.92308 0
-4.61538 -6.92308 0
-3.84615 -6.92308 0
-3.07692 -6.92308 0
-2.30769 -6.92308 0
-1.53846 -6.92308 0
-0.769231 -6.92308 0
5.55112e-016 -6.92308 0
0.769231 -6.92308 0
1.53846 -6.92308 0
2.30769 -6.92308 0
3.07692 -6.92308 0
3.84615 -6.92308 0
4.61538 -6.92308 0
5.38462 -6.92308 0
6.15385 -6.92308 0
6.92308 -6.92308 0
7.69231 -6.92308 0
8.46154 -6.92308 0
10 -6.92308 0
-10 -6.15385 0
-9.23077 -6.15385 0
-8.46154 -6.15385 0
-7.69231 -6.15385 0
-6.92308 -6.15385 0
-6.15385 -6.15385 0
-5.38462 -6.15385 0
-4.61538 -6.15385 0
-3.84615 -6.15385 0
-3.07692 -6.15385 0
-2.30769 -6.15385 0
-1.53846 -6.15385 0
-0.769231 -6.15385 0
5.55112e-016 -6.15385 0
0.769231 -6.15385 0
1.53846 -6.15385 0
2.30769 -6.15385 0
3.07692 -6.15385 0
3.84615 -6.15385 0
4.61538 -6.15385 0
5.38462 -6.15385 0
6.15385 -6.15385 0
6.92308 -6.15385 0
7.69231 -6.15385 0
8.46154 -6.15385 0
10 -6.15385 0
-10 -5.38462 0
-9.23077 -5.38462 0
-8.46154 -5.38462 0
-7.69231 -5.38462 0
-6.92308 -5.38462 0
-6.15385 -5.38462 0
-5.38462 -5.38462 0
-4.61538 -5.38462 0
-3.84615 -5.38462 0
-3.07692 -5.38462 0
-2.30769 -5.38462 0
-1.53846 -5.38462 0
-0.769231 -5.38462 0
5.55112e-016 -5.38462 0
0.769231 -5.38462 0
1.53846 -5.38462 0
2.30769 -5.38462 0
3.07692 -5.38462 0
3.84615 -5.38462 0
4.61538 -5.38462 0
5.38462 -5.38462 0
6.15385 -5.38462 0
6.92308 -5.38462 0
7.69231 -5.38462 0
8.46154 -5.38462 0
10 -5.38462 0
-10 -4.61538 0
-9.23077 -4.61538 0
-8.46154 -4.61538 0
-7.69231 -4.61538 0
-6.92308 -4.61538 0
-6.15385 -4.61538 0
-5.38462 -4.61538 0
-4.61538 -4.61538 0
-3.84615 -4.61538 0
-3.07692 -4.61538 0
-2.30769 -4.61538 0
-1.53846 -4.61538 0
-0.769231 -4.61538 0
5.55112e-016 -4.61538 0
0.769231 -4.61538 0
1.53846 -4.61538 0
2.30769 -4.61538 0
3.07692 -4.61538 0
3.84615 -4.61538 0
4.61538 -4.61538 0
5.38462 -4.61538 0
6.15385 -4.61538 0
6.92308 -4.61538 0
7.69231 -4.61538 0
8.46154 -4.61538 0
10 -4.61538 0
-10 -3.84615 0
-9.23077 -3.84615 0
-8.46154 -3.84615 0
-7.69231 -3.84615 0
-6.92308 -3.84615 0
-6.15385 -3.84615 0
-5.38462 -3.84615 0
-4.61538 -3.84615 0
-3.84615 -3.84615 0
-3.07692 -3.84615 0
-2.30769 -3.84615 0
-1.53846 -3.84615 0
-0.769231 -3.84615 0
5.55112e-016 -3.84615 0
0.769231 -3.84615 0
1.53846 -3.84615 0
2.30769 -3.84615 0
3.07692 -3.84615 0
3.84615 -3.84615 0
4.61538 -3.84615 0
5.38462 -3.84615 0
6.15385 -3.84615 0
6.92308 -3.84615 0
7.69231 -3.84615 0
8.46154 -3.84615 0
10 -3.84615 0
-10 -3.07692 0
-9.23077 -3.07692 0
-8.46154 -3.07692 0
-7.69231 -3.07692 0
-6.92308 -3.07692 0
-6.15385 -3.07692 0
-5.38462 -3.07692 0
-4.61538 -3.07692 0
-3.84615 -3.07692 0
-3.07692 -3.07692 0
-2.30769 -3.07692 0
-1.53846 -3.07692 0
-0.769231 -3.07692 0
5.55112e-016 -3.07692 0
0.769231 -3.07692 0
1.53846 -3.07692 0
2.30769 -3.07692 0
3.07692 -3.07692 0
3.84615 -3.07692 0
4.61538 -3.07692 0
5.38462 -3.07692 0
6.15385 -3.07692 0
6.92308 -3.07692 0
7.69231 -3.07692 0
8.46154 -3.07692 0
10 -3.07692 0
-10 -2.30769 0
-9.23077 -2.30769 0
-8.46154 -2.30769 0
-7.69231 -2.30769 0
-6.92308 -2.30769 0
-6.15385 -2.30769 0
-5.38462 -2.30769 0
-4.61538 -2.30769 0
-3.84615 -2.30769 0
-3.07692 -2.30769 0
-2.30769 -2.30769 0
-1.53846 -2.30769 0
-0.769231 -2.30769 0
5.55112e-016 -2.30769 0
0.769231 -2.30769 0
1.53846 -2.30769 0
2.30769 -2.30769 0
3.07692 -2.30769 0
3.84615 -2.30769 0
4.61538 -2.30769 0
5.38462 -2.30769 0
6.15385 -2.30769 0
6.92308 -2.30769 0
7.69231 -2.30769 0
8.46154 -2.30769 0
10 -2.30769 0
-10 -1.53846 0
-9.23077 -1.53846 0
-8.46154 -1.53846 0
-7.69231 -1.53846 0
-6.92308 -1.53846 0
-6.15385 -1.53846 0
-5.38462 -1.53846 0
-4.61538 -1.53846 0
-3.84615 -1.53846 0
-3.07692 -1.53846 0
-2.30769 -1.53846 0
-1.53846 -1.53846 0
-0.769231 -1.53846 0
5.55112e-016 -1.53846 0
0.769231 -1.53846 0
1.53846 -1.53846 0
2.30769 -1.53846 0
3.07692 -1.53846 0
3.84615 -1.53846 0
4.61538 -1.53846 0
5.38462 -1.53846 0
6.15385 -1.53846 0
6.92308 -1.53846 0
7.69231 -1.53846 0
8.46154 -1.53846 0
10 -1.53846 0
-10 -0.769231 0
-9.23077 -0.769231 0
-8.46154 -0.769231 0
-7.69231 -0.769231 0
-6.92308 -0.769231 0
-6.15385 -0.769231 0
-5.38462 -0.769231 0
-4.61538 -0.769231 0
-3.84615 -0.769231 0
-3.07692 -0.769231 0
-2.30769 -0.769231 0
-1.53846 -0.769231 0
-0.769231 -0.769231 0
5.55112e-016 -0.769231 0
0.769231 -0.769231 0
1.53846 -0.769231 0
2.30769 -0.769231 0
3.07692 -0.769231 0
3.84615 -0.769231 0
4.61538 -0.769231 0
5.38462 -0.769231 0
6.15385 -0.769231 0
6.92308 -0.769231 0
7.69231 -0.769231 0
8.46154 -0.769231 0
10 -0.769231 0
-10 5.55112e-016 0
-9.23077 5.55112e-016 0
-8.46154 5.55112e-016 0
-7.69231 5.55112e-016 0
-6.92308 5.55112e-016 0
-6.15385 5.55112e-016 0
-5.38462 5.55112e-016 0
-4.61538 5.55112e-016 0
-3.84615 5.55112e-016 0
-3.07692 5.55112e-016 0
-2.30769 5.55112e-016 0
-1.53846 5.55112e-016 0
-0.769231 5.55112e-016 0
5.55112e-016 5.55112e-016 0
0.769231 5.55112e-016 0
1.53846 5.55112e-016 0
2.30769 5.55112e-016 0
3.07692 5.55112e-016 0
3.84615 5.55112e-016 0
4.61538 5.55112e-016 0
5.38462 5.55112e-016 0
6.15385 5.55112e-016 0
6.92308 5.55112e-016 0
7.69231 5.55112e-016 0
8.46154 5.55112e-016 0
10 5.55112e-016 0
-10 0.769231 0
-9.23077 0.769231 0
-8.46154 0.769231 0
-7.69231 0.769231 0
-6.92308 0.769231 0
-6.15385 0.769231 0
-5.38462 0.769231 0
-4.61538 0.769231 0
-3.84615 0.769231 0
-3.07692 0.769231 0
-2.30769 0.769231 0
-1.53846 0.769231 0
-0.769231 0.769231 0
5.55112e-016 0.769231 0
0.769231 0.769231 0
1.53846 0.769231 0
2.30769 0.769231 0
3.07692 0.769231 0
3.84615 0.769231 0
4.61538 0.769231 0
5.38462 0.769231 0
6.15385 0.769231 0
6.92308 0.769231 0
7.69231 0.769231 0
8.46154 0.769231 0
10 0.769231 0
-10 1.53846 0
-9.23077 1.53846 0
-8.46154 1.53846 0
-7.69231 1.53846 0
-6.92308 1.53846 0
-6.15385 1.53846 0
-5.38462 1.53846 0
-4.61538 1.53846 0
-3.84615 1.53846 0
-3.07692 1.53846 0
-2.30769 1.53846 0
-1.53846 1.53846 0
-0.769231 1.53846 0
5.55112e-016 1.53846 0
0.769231 1.53846 0
1.53846 1.53846 0
2.30769 1.53846 0
3.07692 1.53846 0
3.84615 1.53846 0
4.61538 1.53846 0
5.38462 1.53846 0
6.15385 1.53846 0
6.92308 1.53846 0
7.69231 1.53846 0
8.46154 1.53846 0
10 1.53846 0
-10 2.30769 0
-9.23077 2.30769 0
-8.46154 2.30769 0
-7.69231 2.30769 0
-6.92308 2.30769 0
-6.15385 2.30769 0
-5.38462 2.30769 0
-4.61538 2.30769 0
-3.84615 2.30769 0
-3.07692 2.30769 0
-2.30769 2.30769 0
-1.53846 2.30769 0
-0.769231 2.30769 0
5.55112e-016 2.30769 0
0.769231 2.30769 0
1.53846 2.30769 0
2.30769 2.30769 0
3.07692 2.30769 0
3.84615 2.30769 0
4.61538 2.30769 0
5.38462 2.30769 0
6.15385 2.30769 0
6.92308 2.30769 0
7.69231 2.30769 0
8.46154 2.30769 0
10 2.30769 0
-10 3.07692 0
-9.23077 3.07692 0
-8.46154 3.07692 0
-7.69231 3.07692 0
-6.92308 3.07692 0
-6.15385 3.07692 0
-5.38462 3.07692 0
-4.61538 3.07692 0
-3.84615 3.07692 0
-3.07692 3.07692 0
-2.30769 3.07692 0
-1.53846 3.07692 0
-0.769231 3.07692 0
5.55112e-016 3.07692 0
0.769231 3.07692 0
1.53846 3.07692 0
2.30769 3.07692 0
3.07692 3.07692 0
3.84615 3.07692 0
4.61538 3.07692 0
5.38462 3.07692 0
6.15385 3.07692 0
6.92308 3.07692 0
7.69231 3.07692 0
8.46154 3.07692 0
10 3.07692 0
-10 3.84615 0
-9.23077 3.84615 0
-8.46154 3.84615 0
-7.69231 3.84615 0
-6.92308 3.84615 0
-6.15385 3.84615 0
-5.38462 3.84615 0
-4.61538 3.84615 0
-3.84615 3.84615 0
-3.07692 3.84615 0
-2.30769 3.84615 0
-1.53846 3.84615 0
-0.769231 3.84615 0
5.55112e-016 3.84615 0
0.769231 3.84615 0
1.53846 3.84615 0
2.30769 3.84615 0
3.07692 3.84615 0
3.84615 3.84615 0
4.61538 3.84615 0
5.38462 3.84615 0
6.15385 3.84615 0
6.92308 3.84615 0
7.69231 3.84615 0
8.46154 3.84615 0
10 3.84615 0
-10 4.61538 0
-9.23077 4.61538 0
-8.46154 4.61538 0
-7.69231 4.61538 0
-6.92308 4.61538 0
-6.15385 4.61538 0
-5.38462 4.61538 0
-4.61538 4.61538 0
-3.84615 4.61538 0
-3.07692 4.61538 0
-2.30769 4.61538 0
-1.53846 4.61538 0
-0.769231 4.61538 0
5.55112e-016 4.61538 0
0.769231 4.61538 0
1.53846 4.61538 0
2.30769 4.61538 0
3.07692 4.61538 0
3.84615 4.61538 0
4.61538 4.61538 0
5.38462 4.61538 0
6.15385 4.61538 0
6.92308 4.61538 0
7.69231 4.61538 0
8.46154 4.61538 0
10 4.61538 0
-10 5.38462 0
-9.23077 5.38462 0
-8.46154 5.38462 0
-7.69231 5.38462 0
-6.92308 5.38462 0
-6.15385 5.38462 0
-5.38462 5.38462 0
-4.61538 5.38462 0
-3.84615 5.38462 0
-3.07692 5.38462 0
-2.30769 5.38462 0
-1.53846 5.38462 0
-0.769231 5.38462 0
5.55112e-016 5.38462 0
0.769231 5.38462 0
1.53846 5.38462 0
2.30769 5.38462 0
3.07692 5.38462 0
3.84615 5.38462 0
4.61538 5.38462 0
5.38462 5.38462 0
6.15385 5.38462 0
6.92308 5.38462 0
7.69231 5.38462 0
8.46154 5.38462 0
10 5.38462 0
-10 6.15385 0
-9.23077 6.15385 0
-8.46154 6.15385 0
-7.69231 6.15385 0
-6.92308 6.15385 0
-6.15385 6.15385 0
-5.38462 6.15385 0
-4.61538 6.15385 0
-3.84615 6.15385 0
-3.07692 6.15385 0
-2.30769 6.15385 0
-1.53846 6.15385 0
-0.769231 6.15385 0
5.55112e-016 6.15385 0
0.769231 6.15385 0
1.53846 6.15385 0
2.30769 6.15385 0
3.07692 6.15385 0
3.84615 6.15385 0
4.61538 6.15385 0
5.38462 6.15385 0
6.15385 6.15385 0
6.92308 6.15385 0
7.69231 6.15385 0
8.46154 6.15385 0
10 6.15385 0
-10 6.92308 0
-9.23077 6.92308 0
-8.46154 6.92308 0
-7.69231 6.92308 0
-6.92308 6.92308 0
-6.15385 6.92308 0
-5.38462 6.92308 0
-4.61538 6.92308 0
-3.84615 6.92308 0
-3.07692 6.92308 0
-2.30769 6.92308 0
-1.53846 6.92308 0
-0.769231 6.92308 0
5.55112e-016 6.92308 0
0.769231 6.92308 0
1.53846 6.92308 0
2.30769 6.92308 0
3.07692 6.92308 0
3.84615 6.92308 0
4.61538 6.92308 0
5.38462 6.92308 0
6.15385 6.92308 0
6.92308 6.92308 0
7.69231 6.92308 0
8.46154 6.92308 0
10 6.92308 0
-10 7.69231 0
-9.23077 7.69231 0
-8.46154 7.69231 0
-7.69231 7.69231 0
-6.92308 7.69231 0
-6.15385 7.69231 0
-5.38462 7.69231 0
-4.61538 7.69231 0
-3.84615 7.69231 0
-3.07692 7.69231 0
-2.30769 7.69231 0
-1.53846 7.69231 0
-0.769231 7.69231 0
5.55112e-016 7.69231 0
0.769231 7.69231 0
1.53846 7.69231 0
2.30769 7.69231 0
3.07692 7.69231 0
3.84615 7.69231 0
4.61538 7.69231 0
5.38462 7.69231 0
6.15385 7.69231 0
6.92308 7.69231 0
7.69231 7.69231 0
8.46154 7.69231 0
10 7.69231 0
-10 8.46154 0
-9.23077 8.46154 0
-8.46154 8.46154 0
-7.69231 8.46154 0
-6.92308 8.46154 0
-6.15385 8.46154 0
-5.38462 8.46154 0
-4.61538 8.46154 0
-3.84615 8.46154 0
-3.07692 8.46154 0
-2.30769 8.46154 0
-1.53846 8.46154 0
-0.769231 8.46154 0
5.55112e-016 8.46154 0
0.769231 8.46154 0
1.53846 8.46154 0
2.30769 8.46154 0
3.07692 8.46154 0
3.84615 8.46154 0
4.61538 8.46154 0
5.38462 8.46154 0
6.15385 8.46154 0
6.92308 8.46154 0
7.69231 8.46154 0
8.46154 8.46154 0
10 8.46154 0
-10 10 0
-9.23077 10 0
-8.46154 10 0
-7.69231 10 0
-6.92308 10 0
-6.15385 10 0
-5.38462 10 0
-4.61538 10 0
-3.84615 10 0
-3.07692 10 0
-2.30769 10 0
-1.53846 10 0
-0.769231 10 0
5.55112e-016 10 0
0.769231 10 0
1.53846 10 0
2.30769 10 0
3.07692 10 0
3.84615 10 0
4.61538 10 0
5.38462 10 0
6.15385 10 0
6.92308 10 0
7.69231 10 0
8.46154 10 0
10 10 0

POINT_DATA 676
SCALARS h double 1
LOOkUP_TABLE default
0.0450644
0.058223
0.0772314
0.100959
0.126267
0.148726
0.164202
0.17039
0.167396
0.157213
0.14264
0.126294
0.110083
0.0951276
0.0819218
0.0705672
0.0609638
0.052938
0.0463178
0.0409753
0.0368603
0.0340409
0.032763
0.0335405
0.0372356
0.0450644
0.0366047
0.0445033
0.0574725
0.0758063
0.0981998
0.121545
0.141726
0.155123
0.159913
0.156439
0.14664
0.133053
0.117981
0.10308
0.0893161
0.0771216
0.0665947
0.0576603
0.0501781
0.0440061
0.0390408
0.0352516
0.0327181
0.0317043
0.0327131
0.0366047
0.0321482
0.0361256
0.043877
0.0562969
0.0734593
0.0939739
0.114902
0.132578
0.143951
0.147628
0.144084
0.135086
0.122843
0.109319
0.0959215
0.0834829
0.0723927
0.0627596
0.0545436
0.0476428
0.0419503
0.0373875
0.0339437
0.0317085
0.0309434
0.0321482
0.0305337
0.031873
0.0358002
0.0431954
0.0547398
0.0703392
0.0886013
0.106874
0.122024
0.131563
0.134455
0.131198
0.123314
0.112644
0.100818
0.0890151
0.0779543
0.0679987
0.0592788
0.0517955
0.0454881
0.0402847
0.0361299
0.0330292
0.0310768
0.0305337
0.0308773
0.0305121
0.031891
0.0356449
0.04249
0.0529193
0.0667103
0.0825513
0.0981536
0.110937
0.118928
0.121355
0.118661
0.112079
0.103081
0.0929848
0.082768
0.0730585
0.0642067
0.0563717
0.0495973
0.0438627
0.0391267
0.035358
0.0325716
0.0308773
0.0326233
0.03113
0.0308588
0.0321907
0.0356503
0.0418031
0.0509738
0.0628664
0.0763141
0.0894232
0.100137
0.106921
0.10918
0.107244
0.102043
0.0947081
0.0862744
0.0775501
0.0690944
0.0612573
0.0542304
0.0480994
0.0428805
0.0385623
0.0351321
0.0326233
0.0354913
0.0331809
0.0317969
0.0315421
0.0327356
0.0358065
0.0411796
0.0490496
0.0591009
0.0703508
0.0812931
0.090332
0.0962768
0.0986316
0.09758
0.0937591
0.0879887
0.0810673
0.0736683
0.0663054
0.0593399
0.0529998
0.0474097
0.0426215
0.0386448
0.0354913
0.0393907
0.0364049
0.0341851
0.0328288
0.0325042
0.0334804
0.0360952
0.040659
0.0472809
0.0556703
0.0650444
0.0742474
0.0820611
0.0875444
0.0902326
0.0901403
0.0876326
0.0832626
0.0776388
0.0713394
0.0648586
0.0585809
0.0527719
0.0475927
0.0431201
0.0393907
0.0443616
0.0407377
0.0377911
0.0355691
0.0341477
0.0336745
0.0343684
0.0364922
0.0402744
0.0457805
0.0527788
0.0606825
0.0686318
0.0756952
0.0810892
0.0843208
0.0852231
0.0839156
0.080734
0.0761495
0.0706865
0.0648453
0.0590422
0.0535814
0.0486517
0.0443616
0.050533
0.0462477
0.0425768
0.0395617
0.0372328
0.0356611
0.0349701
0.0353375
0.0369714
0.0400511
0.0446359
0.0505738
0.0574568
0.064659
0.0714453
0.0771047
0.0810636
0.0829658
0.0827167
0.0804862
0.07666
0.071749
0.0662807
0.060714
0.0553886
0.050533
0.0580924
0.0530955
0.0486363
0.0447936
0.041591
0.0390613
0.0372644
0.0363035
0.0363263
0.0375077
0.0400074
0.0439077
0.049147
0.0554713
0.0624261
0.0693892
0.0756447
0.0804928
0.0833834
0.0840379
0.0825087
0.0791454
0.0744813
0.0690966
0.0635017
0.0580924
0.0672474
0.0614997
0.0561547
0.0513792
0.0472309
0.0437387
0.0409288
0.0388503
0.0375909
0.0372801
0.0380789
0.0401527
0.0436285
0.0485381
0.0547556
0.0619401
0.0695076
0.0766682
0.0825524
0.0864091
0.0878013
0.0867086
0.0834903
0.0787456
0.0731327
0.0672474
0.0781639
0.0716948
0.0653737
0.0595211
0.0542819
0.0497201
0.0458574
0.0427108
0.040319
0.0387591
0.0381528
0.0386643
0.0404848
0.0438018
0.0487418
0.0552828
0.0631475
0.0717232
0.0800791
0.08713
0.0919115
0.0938504
0.0928978
0.0894805
0.0843063
0.0781639
0.0908605
0.0838584
0.0765434
0.0694743
0.0629564
0.0571439
0.0520913
0.0478071
0.0442959
0.0415863
0.0397487
0.0389067
0.0392413
0.0409868
0.0444047
0.0497175
0.0569881
0.0659589
0.0759232
0.0857397
0.0940558
0.0996797
0.101928
0.100783
0.0967968
0.0908605
0.105049
0.0979885
0.0898402
0.0814931
0.0735129
0.0662251
0.0597724
0.0541901
0.0494678
0.0455942
0.0425874
0.0405148
0.0395097
0.0397832
0.0416275
0.0453915
0.0513983
0.0597804
0.0702564
0.081957
0.0934546
0.103076
0.109395
0.111662
0.109956
0.105049
0.119936
0.11372
0.105228
0.0957399
0.086199
0.0772162
0.0691107
0.0620005
0.0558916
0.0507485
0.046541
0.0432768
0.0410242
0.0399338
0.0402584
0.0423634
0.0466997
0.053697
0.0635425
0.0758842
0.0896145
0.102941
0.113824
0.120617
0.12256
0.119936
0.134045
0.130099
0.12225
0.11213
0.10115
0.0903464
0.080344
0.0714359
0.0637009
0.0571073
0.0515892
0.0470961
0.0436265
0.0412536
0.0401533
0.0406317
0.0431422
0.0482528
0.0565055
0.0681237
0.0826309
0.098601
0.113802
0.125806
0.132773
0.134045
0.145207
0.145392
0.139781
0.130103
0.118218
0.105709
0.0936705
0.0827097
0.0730743
0.0647914
0.0577856
0.0519585
0.04724
0.0436221
0.0411882
0.0401466
0.0408678
0.043907
0.0499632
0.0596929
0.0733307
0.0902146
0.108519
0.12552
0.138393
0.145207
0.150873
0.157101
0.155831
0.148353
0.136723
0.123078
0.109127
0.0959762
0.0841902
0.0739527
0.0652319
0.0579066
0.0518481
0.0469699
0.0432618
0.0408223
0.039899
0.0409357
0.0446017
0.0517361
0.0631061
0.078923
0.0982728
0.118865
0.137446
0.150873
0.148863
0.162375
0.1676
0.164643
0.155177
0.141641
0.126389
0.111199
0.0971458
0.0847249
0.0740458
0.065017
0.0574759
0.0512688
0.0462983
0.0425569
0.0401627
0.0394078
0.040816
0.0451775
0.053475
0.0665716
0.0846111
0.106367
0.129028
0.148863
0.138348
0.158906
0.172001
0.175916
0.171118
0.159731
0.144508
0.127944
0.111817
0.0971362
0.0843077
0.0733669
0.0641693
0.05652
0.0502489
0.0452542
0.0415354
0.0392339
0.0386888
0.0405065
0.0455994
0.0550863
0.0698983
0.0900633
0.113982
0.138348
0.120585
0.146054
0.166714
0.178957
0.181316
0.174712
0.161657
0.145124
0.127655
0.110968
0.0959709
0.0829791
0.0719621
0.0627363
0.0550872
0.0488375
0.0438871
0.0402469
0.0380823
0.03778
0.0400263
0.0458487
0.0564812
0.0728836
0.0949089
0.120585
0.0987888
0.125576
0.151415
0.17158
0.182561
0.183286
0.175098
0.160799
0.143457
0.125565
0.108726
0.0937347
0.0808227
0.0699112
0.0607946
0.0532522
0.0471089
0.0422718
0.0387649
0.0367782
0.0367422
0.0394158
0.0459228
0.0575788
0.0753163
0.0987888
0.0770173
0.101317
0.128438
0.153906
0.172971
0.182426
0.181621
0.172244
0.157246
0.139663
0.12185
0.105264
0.0905852
0.0779801
0.067343
0.0584644
0.0511297
0.0451739
0.0405155
0.0371928
0.0354185
0.0356606
0.038736
0.045837
0.0583099
0.0770173
0.0585444
0.0776897
0.102079
0.128709
0.15301
0.170452
0.178246
0.176154
0.166092
0.151007
0.133775
0.116548
0.100613
0.0865489
0.0744782
0.0642887
0.0557828
0.0487631
0.0430809
0.0386693
0.0355817
0.0340497
0.0345702
0.037995
0.0455481
0.0585444
0.0450644
0.058223
0.0772314
0.100959
0.126267
0.148726
0.164202
0.17039
0.167396
0.157213
0.14264
0.126294
0.110083
0.0951276
0.0819218
0.0705672
0.0609638
0.052938
0.0463178
0.0409753
0.0368603
0.0340409
0.032763
0.0335405
0.0372356
0.0450644

VECTORS u double
-189.547 173.776 0.0
-190.582 175.168 0.0
-191.981 176.777 0.0
-193.545 178.369 0.0
-195.086 179.784 0.0
-196.491 180.937 0.0
-197.697 181.785 0.0
-198.672 182.314 0.0
-199.399 182.527 0.0
-199.874 182.441 0.0
-200.1 182.09 0.0
-200.088 181.518 0.0
-199.856 180.775 0.0
-199.427 179.914 0.0
-198.827 178.982 0.0
-198.079 178.018 0.0
-197.209 177.054 0.0
-196.235 176.111 0.0
-195.176 175.208 0.0
-194.051 174.361 0.0
-192.881 173.59 0.0
-191.709 172.936 0.0
-190.62 172.484 0.0
-189.768 172.354 0.0
-189.379 172.783 0.0
-189.547 173.776 0.0
-188.803 173.35 0.0
-189.323 174.295 0.0
-190.396 175.564 0.0
-191.843 177.043 0.0
-193.417 178.496 0.0
-194.94 179.768 0.0
-196.305 180.777 0.0
-197.458 181.484 0.0
-198.369 181.88 0.0
-199.024 181.974 0.0
-199.423 181.792 0.0
-199.57 181.374 0.0
-199.481 180.768 0.0
-199.176 180.026 0.0
-198.681 179.197 0.0
-198.023 178.325 0.0
-197.228 177.443 0.0
-196.32 176.577 0.0
-195.32 175.744 0.0
-194.25 174.959 0.0
-193.128 174.233 0.0
-191.989 173.589 0.0
-190.875 173.062 0.0
-189.927 172.742 0.0
-189.209 172.75 0.0
-188.803 173.35 0.0
-188.649 173.435 0.0
-188.579 173.916 0.0
-189.126 174.682 0.0
-190.247 175.834 0.0
-191.702 177.162 0.0
-193.252 178.458 0.0
-194.726 179.579 0.0
-196.027 180.446 0.0
-197.106 181.022 0.0
-197.935 181.304 0.0
-198.506 181.307 0.0
-198.82 181.065 0.0
-198.886 180.621 0.0
-198.723 180.026 0.0
-198.354 179.329 0.0
-197.806 178.577 0.0
-197.108 177.805 0.0
-196.286 177.042 0.0
-195.367 176.308 0.0
-194.372 175.616 0.0
-193.328 174.978 0.0
-192.259 174.4 0.0
-191.211 173.905 0.0
-190.23 173.511 0.0
-189.439 173.313 0.0
-188.649 173.435 0.0
-188.799 174.082 0.0
-188.328 174.118 0.0
-188.341 174.371 0.0
-188.973 175.017 0.0
-190.118 175.999 0.0
-191.55 177.143 0.0
-193.045 178.265 0.0
-194.447 179.229 0.0
-195.666 179.958 0.0
-196.655 180.422 0.0
-197.393 180.618 0.0
-197.873 180.569 0.0
-198.1 180.311 0.0
-198.089 179.89 0.0
-197.861 179.357 0.0
-197.442 178.755 0.0
-196.862 178.125 0.0
-196.15 177.497 0.0
-195.334 176.891 0.0
-194.44 176.322 0.0
-193.494 175.797 0.0
-192.525 175.321 0.0
-191.553 174.893 0.0
-190.63 174.519 0.0
-189.751 174.217 0.0
-188.799 174.082 0.0
-189.103 175.073 0.0
-188.438 174.872 0.0
-188.071 174.745 0.0
-188.202 174.875 0.0
-188.881 175.346 0.0
-190.007 176.12 0.0
-191.376 177.055 0.0
-192.786 177.989 0.0
-194.093 178.794 0.0
-195.213 179.398 0.0
-196.103 179.77 0.0
-196.743 179.913 0.0
-197.132 179.853 0.0
-197.281 179.627 0.0
-197.207 179.281 0.0
-196.935 178.86 0.0
-196.496 178.403 0.0
-195.917 177.939 0.0
-195.229 177.49 0.0
-194.458 177.067 0.0
-193.631 176.675 0.0
-192.767 176.312 0.0
-191.892 175.973 0.0
-191.017 175.642 0.0
-190.15 175.326 0.0
-189.103 175.073 0.0
-189.521 176.25 0.0
-188.796 175.962 0.0
-188.23 175.643 0.0
-187.994 175.415 0.0
-188.199 175.396 0.0
-188.874 175.669 0.0
-189.932 176.218 0.0
-191.197 176.935 0.0
-192.491 177.678 0.0
-193.681 178.332 0.0
-194.688 178.828 0.0
-195.471 179.139 0.0
-196.016 179.269 0.0
-196.325 179.246 0.0
-196.413 179.106 0.0
-196.303 178.888 0.0
-196.021 178.63 0.0
-195.597 178.357 0.0
-195.058 178.088 0.0
-194.43 177.83 0.0
-193.732 177.583 0.0
-192.986 177.34 0.0
-192.203 177.092 0.0
-191.4 176.821 0.0
-190.564 176.526 0.0
-189.521 176.25 0.0
-189.999 177.503 0.0
-189.295 177.207 0.0
-188.665 176.827 0.0
-188.238 176.425 0.0
-188.101 176.085 0.0
-188.335 175.911 0.0
-188.962 175.985 0.0
-189.91 176.313 0.0
-191.036 176.816 0.0
-192.186 177.38 0.0
-193.24 177.902 0.0
-194.124 178.32 0.0
-194.802 178.61 0.0
-195.262 178.776 0.0
-195.512 178.843 0.0
-195.569 178.842 0.0
-195.458 178.799 0.0
-195.204 178.737 0.0
-194.83 178.665 0.0
-194.356 178.585 0.0
-193.8 178.491 0.0
-193.175 178.373 0.0
-192.494 178.219 0.0
-191.77 178.013 0.0
-190.995 177.76 0.0
-189.999 177.503 0.0
-190.521 178.771 0.0
-189.877 178.501 0.0
-189.26 178.12 0.0
-188.767 177.662 0.0
-188.454 177.171 0.0
-188.381 176.717 0.0
-188.606 176.395 0.0
-189.149 176.286 0.0
-189.957 176.414 0.0
-190.917 176.729 0.0
-191.903 177.141 0.0
-192.81 177.565 0.0
-193.571 177.947 0.0
-194.154 178.265 0.0
-194.551 178.521 0.0
-194.772 178.73 0.0
-194.833 178.907 0.0
-194.754 179.062 0.0
-194.552 179.196 0.0
-194.242 179.302 0.0
-193.834 179.368 0.0
-193.34 179.379 0.0
-192.769 179.324 0.0
-192.138 179.191 0.0
-191.444 178.99 0.0
-190.521 178.771 0.0
-191.084 180.016 0.0
-190.518 179.783 0.0
-189.949 179.425 0.0
-189.461 178.963 0.0
-189.086 178.421 0.0
-188.855 177.838 0.0
-188.811 177.278 0.0
-188.997 176.828 0.0
-189.432 176.567 0.0
-190.081 176.531 0.0
-190.863 176.697 0.0
-191.678 177 0.0
-192.439 177.374 0.0
-193.087 177.773 0.0
-193.595 178.172 0.0
-193.957 178.565 0.0
-194.179 178.949 0.0
-194.269 179.316 0.0
-194.239 179.656 0.0
-194.094 179.95 0.0
-193.84 180.178 0.0
-193.484 180.324 0.0
-193.036 180.376 0.0
-192.514 180.326 0.0
-191.917 180.187 0.0
-191.084 180.016 0.0
-191.685 181.205 0.0
-191.205 181.016 0.0
-190.701 180.689 0.0
-190.251 180.243 0.0
-189.875 179.694 0.0
-189.586 179.066 0.0
-189.405 178.396 0.0
-189.36 177.746 0.0
-189.485 177.193 0.0
-189.799 176.818 0.0
-190.286 176.665 0.0
-190.891 176.734 0.0
-191.541 176.984 0.0
-192.169 177.366 0.0
-192.725 177.836 0.0
-193.183 178.362 0.0
-193.534 178.918 0.0
-193.775 179.478 0.0
-193.904 180.012 0.0
-193.921 180.49 0.0
-193.823 180.884 0.0
-193.614 181.172 0.0
-193.301 181.342 0.0
-192.904 181.385 0.0
-192.418 181.318 0.0
-191.685 181.205 0.0
-192.32 182.307 0.0
-191.933 182.171 0.0
-191.502 181.882 0.0
-191.103 181.46 0.0
-190.754 180.921 0.0
-190.461 180.284 0.0
-190.227 179.573 0.0
-190.065 178.828 0.0
-189.994 178.104 0.0
-190.042 177.479 0.0
-190.231 177.029 0.0
-190.561 176.811 0.0
-191.002 176.84 0.0
-191.507 177.098 0.0
-192.023 177.543 0.0
-192.51 178.128 0.0
-192.941 178.804 0.0
-193.297 179.521 0.0
-193.565 180.23 0.0
-193.731 180.883 0.0
-193.788 181.444 0.0
-193.732 181.881 0.0
-193.567 182.18 0.0
-193.305 182.331 0.0
-192.943 182.351 0.0
-192.32 182.307 0.0
-192.979 183.288 0.0
-192.691 183.218 0.0
-192.338 182.978 0.0
-191.998 182.588 0.0
-191.69 182.068 0.0
-191.416 181.437 0.0
-191.174 180.716 0.0
-190.965 179.931 0.0
-190.793 179.122 0.0
-190.674 178.344 0.0
-190.633 177.672 0.0
-190.698 177.186 0.0
-190.883 176.951 0.0
-191.18 176.997 0.0
-191.562 177.316 0.0
-191.993 177.869 0.0
-192.435 178.593 0.0
-192.858 179.418 0.0
-193.23 180.272 0.0
-193.529 181.088 0.0
-193.735 181.813 0.0
-193.835 182.408 0.0
-193.824 182.85 0.0
-193.711 183.124 0.0
-193.482 183.247 0.0
-192.979 183.288 0.0
-193.643 184.113 0.0
-193.462 184.128 0.0
-193.195 183.952 0.0
-192.921 183.607 0.0
-192.66 183.115 0.0
-192.417 182.5 0.0
-192.188 181.781 0.0
-191.969 180.982 0.0
-191.754 180.132 0.0
-191.546 179.272 0.0
-191.359 178.456 0.0
-191.22 177.762 0.0
-191.162 177.271 0.0
-191.214 177.059 0.0
-191.387 177.168 0.0
-191.674 177.591 0.0
-192.049 178.278 0.0
-192.473 179.148 0.0
-192.907 180.106 0.0
-193.312 181.064 0.0
-193.653 181.949 0.0
-193.907 182.707 0.0
-194.057 183.306 0.0
-194.1 183.721 0.0
-194.017 183.968 0.0
-193.643 184.113 0.0
-194.287 184.746 0.0
-194.223 184.869 0.0
-194.052 184.778 0.0
-193.852 184.495 0.0
-193.647 184.047 0.0
-193.442 183.456 0.0
-193.237 182.749 0.0
-193.024 181.949 0.0
-192.796 181.081 0.0
-192.547 180.174 0.0
-192.279 179.272 0.0
-192.005 178.431 0.0
-191.757 177.731 0.0
-191.577 177.262 0.0
-191.507 177.107 0.0
-191.582 177.314 0.0
-191.806 177.87 0.0
-192.159 178.706 0.0
-192.597 179.715 0.0
-193.07 180.786 0.0
-193.526 181.819 0.0
-193.926 182.743 0.0
-194.237 183.508 0.0
-194.444 184.082 0.0
-194.518 184.473 0.0
-194.287 184.746 0.0
-194.876 185.152 0.0
-194.945 185.408 0.0
-194.883 185.427 0.0
-194.769 185.23 0.0
-194.629 184.843 0.0
-194.471 184.293 0.0
-194.296 183.609 0.0
-194.1 182.816 0.0
-193.874 181.94 0.0
-193.608 181.008 0.0
-193.297 180.052 0.0
-192.944 179.114 0.0
-192.567 178.257 0.0
-192.2 177.566 0.0
-191.899 177.139 0.0
-191.726 177.07 0.0
-191.732 177.405 0.0
-191.933 178.115 0.0
-192.306 179.104 0.0
-192.794 180.242 0.0
-193.334 181.403 0.0
-193.863 182.487 0.0
-194.332 183.427 0.0
-194.708 184.174 0.0
-194.949 184.728 0.0
-194.876 185.152 0.0
-195.37 185.303 0.0
-195.588 185.716 0.0
-195.653 185.872 0.0
-195.642 185.787 0.0
-195.58 185.485 0.0
-195.48 184.995 0.0
-195.345 184.347 0.0
-195.172 183.572 0.0
-194.956 182.698 0.0
-194.686 181.752 0.0
-194.354 180.762 0.0
-193.957 179.761 0.0
-193.499 178.794 0.0
-193.003 177.93 0.0
-192.513 177.261 0.0
-192.101 176.899 0.0
-191.85 176.943 0.0
-191.827 177.43 0.0
-192.052 178.308 0.0
-192.488 179.448 0.0
-193.062 180.699 0.0
-193.693 181.929 0.0
-194.307 183.043 0.0
-194.852 183.973 0.0
-195.27 184.707 0.0
-195.37 185.303 0.0
-195.726 185.175 0.0
-196.111 185.767 0.0
-196.323 186.086 0.0
-196.434 186.14 0.0
-196.468 185.95 0.0
-196.44 185.542 0.0
-196.356 184.951 0.0