# vtk DataFile Version 2.0
Particulate Flow Equations Solution
ASCII
DATASET STRUCTURED_GRID
DIMENSIONS 26 26 1
POINTS 676 double
-10 -10 0
-9.23077 -10 0
-8.46154 -10 0
-7.69231 -10 0
-6.92308 -10 0
-6.15385 -10 0
-5.38462 -10 0
-4.61538 -10 0
-3.84615 -10 0
-3.07692 -10 0
-2.30769 -10 0
-1.53846 -10 0
-0.769231 -10 0
5.55112e-016 -10 0
0.769231 -10 0
1.53846 -10 0
2.30769 -10 0
3.07692 -10 0
3.84615 -10 0
4.61538 -10 0
5.38462 -10 0
6.15385 -10 0
6.92308 -10 0
7.69231 -10 0
8.46154 -10 0
10 -10 0
-10 -9.23077 0
-9.23077 -9.23077 0
-8.46154 -9.23077 0
-7.69231 -9.23077 0
-6.92308 -9.23077 0
-6.15385 -9.23077 0
-5.38462 -9.23077 0
-4.61538 -9.23077 0
-3.84615 -9.23077 0
-3.07692 -9.23077 0
-2.30769 -9.23077 0
-1.53846 -9.23077 0
-0.769231 -9.23077 0
5.55112e-016 -9.23077 0
0.769231 -9.23077 0
1.53846 -9.23077 0
2.30769 -9.23077 0
3.07692 -9.23077 0
3.84615 -9.23077 0
4.61538 -9.23077 0
5.38462 -9.23077 0
6.15385 -9.23077 0
6.92308 -9.23077 0
7.69231 -9.23077 0
8.46154 -9.23077 0
10 -9.23077 0
-10 -8.46154 0
-9.23077 -8.46154 0
-8.46154 -8.46154 0
-7.69231 -8.46154 0
-6.92308 -8.46154 0
-6.15385 -8.46154 0
-5.38462 -8.46154 0
-4.61538 -8.46154 0
-3.84615 -8.46154 0
-3.07692 -8.46154 0
-2.30769 -8.46154 0
-1.53846 -8.46154 0
-0.769231 -8.46154 0
5.55112e-016 -8.46154 0
0.769231 -8.46154 0
1.53846 -8.46154 0
2.30769 -8.46154 0
3.07692 -8.46154 0
3.84615 -8.46154 0
4.61538 -8.46154 0
5.38462 -8.46154 0
6.15385 -8.46154 0
6.92308 -8.46154 0
7.69231 -8.46154 0
8.46154 -8.46154 0
10 -8.46154 0
-10 -7.69231 0
-9.23077 -7.69231 0
-8.46154 -7.69231 0
-7.69231 -7.69231 0
-6.92308 -7.69231 0
-6.15385 -7.69231 0
-5.38462 -7.69231 0
-4.61538 -7.69231 0
-3.84615 -7.69231 0
-3.07692 -7.69231 0
-2.30769 -7.69231 0
-1.53846 -7.69231 0
-0.769231 -7.69231 0
5.55112e-016 -7.69231 0
0.769231 -7.69231 0
1.53846 -7.69231 0
2.30769 -7.69231 0
3.07692 -7.69231 0
3.84615 -7.69231 0
4.61538 -7.69231 0
5.38462 -7.69231 0
6.15385 -7.69231 0
6.92308 -7.69231 0
7.69231 -7.69231 0
8.46154 -7.69231 0
10 -7.69231 0
-10 -6.92308 0
-9.23077 -6.92308 0
-8.46154 -6.92308 0
-7.69231 -6.92308 0
-6.92308 -6.92308 0
-6.15385 -6.92308 0
-5.38462 -6.92308 0
-4.61538 -6.92308 0
-3.84615 -6.92308 0
-3.07692 -6.92308 0
-2.30769 -6.92308 0
-1.53846 -6.92308 0
-0.769231 -6.92308 0
5.55112e-016 -6.92308 0
0.769231 -6.92308 0
1.53846 -6.92308 0
2.30769 -6.92308 0
3.07692 -6.92308 0
3.84615 -6.92308 0
4.61538 -6.92308 0
5.38462 -6.92308 0
6.15385 -6.92308 0
6.92308 -6.92308 0
7.69231 -6.92308 0
8.46154 -6.92308 0
10 -6.92308 0
-10 -6.15385 0
-9.23077 -6.15385 0
-8.46154 -6.15385 0
-7.69231 -6.15385 0
-6.92308 -6.15385 0
-6.15385 -6.15385 0
-5.38462 -6.15385 0
-4.61538 -6.15385 0
-3.84615 -6.15385 0
-3.07692 -6.15385 0
-2.30769 -6.15385 0
-1.53846 -6.15385 0
-0.769231 -6.15385 0
5.55112e-016 -6.15385 0
0.769231 -6.15385 0
1.53846 -6.15385 0
2.30769 -6.15385 0
3.07692 -6.15385 0
3.84615 -6.15385 0
4.61538 -6.15385 0
5.38462 -6.15385 0
6.15385 -6.15385 0
6.92308 -6.15385 0
7.69231 -6.15385 0
8.46154 -6.15385 0
10 -6.15385 0
-10 -5.38462 0
-9.23077 -5.38462 0
-8.46154 -5.38462 0
-7.69231 -5.38462 0
-6.92308 -5.38462 0
-6.15385 -5.38462 0
-5.38462 -5.38462 0
-4.61538 -5.38462 0
-3.84615 -5.38462 0
-3.07692 -5.38462 0
-2.30769 -5.38462 0
-1.53846 -5.38462 0
-0.769231 -5.38462 0
5.55112e-016 -5.38462 0
0.769231 -5.38462 0
1.53846 -5.38462 0
2.30769 -5.38462 0
3.07692 -5.38462 0
3.84615 -5.38462 0
4.61538 -5.38462 0
5.38462 -5.38462 0
6.15385 -5.38462 0
6.92308 -5.38462 0
7.69231 -5.38462 0
8.46154 -5.38462 0
10 -5.38462 0
-10 -4.61538 0
-9.23077 -4.61538 0
-8.46154 -4.61538 0
-7.69231 -4.61538 0
-6.92308 -4.61538 0
-6.15385 -4.61538 0
-5.38462 -4.61538 0
-4.61538 -4.61538 0
-3.84615 -4.61538 0
-3.07692 -4.61538 0
-2.30769 -4.61538 0
-1.53846 -4.61538 0
-0.769231 -4.61538 0
5.55112e-016 -4.61538 0
0.769231 -4.61538 0
1.53846 -4.61538 0
2.30769 -4.61538 0
3.07692 -4.61538 0
3.84615 -4.61538 0
4.61538 -4.61538 0
5.38462 -4.61538 0
6.15385 -4.61538 0
6.92308 -4.61538 0
7.69231 -4.61538 0
8.46154 -4.61538 0
10 -4.61538 0
-10 -3.84615 0
-9.23077 -3.84615 0
-8.46154 -3.84615 0
-7.69231 -3.84615 0
-6.92308 -3.84615 0
-6.15385 -3.84615 0
-5.38462 -3.84615 0
-4.61538 -3.84615 0
-3.84615 -3.84615 0
-3.07692 -3.84615 0
-2.30769 -3.84615 0
-1.53846 -3.84615 0
-0.769231 -3.84615 0
5.55112e-016 -3.84615 0
0.769231 -3.84615 0
1.53846 -3.84615 0
2.30769 -3.84615 0
3.07692 -3.84615 0
3.84615 -3.84615 0
4.61538 -3.84615 0
5.38462 -3.84615 0
6.15385 -3.84615 0
6.92308 -3.84615 0
7.69231 -3.84615 0
8.46154 -3.84615 0
10 -3.84615 0
-10 -3.07692 0
-9.23077 -3.07692 0
-8.46154 -3.07692 0
-7.69231 -3.07692 0
-6.92308 -3.07692 0
-6.15385 -3.07692 0
-5.38462 -3.07692 0
-4.61538 -3.07692 0
-3.84615 -3.07692 0
-3.07692 -3.07692 0
-2.30769 -3.07692 0
-1.53846 -3.07692 0
-0.769231 -3.07692 0
5.55112e-016 -3.07692 0
0.769231 -3.07692 0
1.53846 -3.07692 0
2.30769 -3.07692 0
3.07692 -3.07692 0
3.84615 -3.07692 0
4.61538 -3.07692 0
5.38462 -3.07692 0
6.15385 -3.07692 0
6.92308 -3.07692 0
7.69231 -3.07692 0
8.46154 -3.07692 0
10 -3.07692 0
-10 -2.30769 0
-9.23077 -2.30769 0
-8.46154 -2.30769 0
-7.69231 -2.30769 0
-6.92308 -2.30769 0
-6.15385 -2.30769 0
-5.38462 -2.30769 0
-4.61538 -2.30769 0
-3.84615 -2.30769 0
-3.07692 -2.30769 0
-2.30769 -2.30769 0
-1.53846 -2.30769 0
-0.769231 -2.30769 0
5.55112e-016 -2.30769 0
0.769231 -2.30769 0
1.53846 -2.30769 0
2.30769 -2.30769 0
3.07692 -2.30769 0
3.84615 -2.30769 0
4.61538 -2.30769 0
5.38462 -2.30769 0
6.15385 -2.30769 0
6.92308 -2.30769 0
7.69231 -2.30769 0
8.46154 -2.30769 0
10 -2.30769 0
-10 -1.53846 0
-9.23077 -1.53846 0
-8.46154 -1.53846 0
-7.69231 -1.53846 0
-6.92308 -1.53846 0
-6.15385 -1.53846 0
-5.38462 -1.53846 0
-4.61538 -1.53846 0
-3.84615 -1.53846 0
-3.07692 -1.53846 0
-2.30769 -1.53846 0
-1.53846 -1.53846 0
-0.769231 -1.53846 0
5.55112e-016 -1.53846 0
0.769231 -1.53846 0
1.53846 -1.53846 0
2.30769 -1.53846 0
3.07692 -1.53846 0
3.84615 -1.53846 0
4.61538 -1.53846 0
5.38462 -1.53846 0
6.15385 -1.53846 0
6.92308 -1.53846 0
7.69231 -1.53846 0
8.46154 -1.53846 0
10 -1.53846 0
-10 -0.769231 0
-9.23077 -0.769231 0
-8.46154 -0.769231 0
-7.69231 -0.769231 0
-6.92308 -0.769231 0
-6.15385 -0.769231 0
-5.38462 -0.769231 0
-4.61538 -0.769231 0
-3.84615 -0.769231 0
-3.07692 -0.769231 0
-2.30769 -0.769231 0
-1.53846 -0.769231 0
-0.769231 -0.769231 0
5.55112e-016 -0.769231 0
0.769231 -0.769231 0
1.53846 -0.769231 0
2.30769 -0.769231 0
3.07692 -0.769231 0
3.84615 -0.769231 0
4.61538 -0.769231 0
5.38462 -0.769231 0
6.15385 -0.769231 0
6.92308 -0.769231 0
7.69231 -0.769231 0
8.46154 -0.769231 0
10 -0.769231 0
-10 5.55112e-016 0
-9.23077 5.55112e-016 0
-8.46154 5.55112e-016 0
-7.69231 5.55112e-016 0
-6.92308 5.55112e-016 0
-6.15385 5.55112e-016 0
-5.38462 5.55112e-016 0
-4.61538 5.55112e-016 0
-3.84615 5.55112e-016 0
-3.07692 5.55112e-016 0
-2.30769 5.55112e-016 0
-1.53846 5.55112e-016 0
-0.769231 5.55112e-016 0
5.55112e-016 5.55112e-016 0
0.769231 5.55112e-016 0
1.53846 5.55112e-016 0
2.30769 5.55112e-016 0
3.07692 5.55112e-016 0
3.84615 5.55112e-016 0
4.61538 5.55112e-016 0
5.38462 5.55112e-016 0
6.15385 5.55112e-016 0
6.92308 5.55112e-016 0
7.69231 5.55112e-016 0
8.46154 5.55112e-016 0
10 5.55112e-016 0
-10 0.769231 0
-9.23077 0.769231 0
-8.46154 0.769231 0
-7.69231 0.769231 0
-6.92308 0.769231 0
-6.15385 0.769231 0
-5.38462 0.769231 0
-4.61538 0.769231 0
-3.84615 0.769231 0
-3.07692 0.769231 0
-2.30769 0.769231 0
-1.53846 0.769231 0
-0.769231 0.769231 0
5.55112e-016 0.769231 0
0.769231 0.769231 0
1.53846 0.769231 0
2.30769 0.769231 0
3.07692 0.769231 0
3.84615 0.769231 0
4.61538 0.769231 0
5.38462 0.769231 0
6.15385 0.769231 0
6.92308 0.769231 0
7.69231 0.769231 0
8.46154 0.769231 0
10 0.769231 0
-10 1.53846 0
-9.23077 1.53846 0
-8.46154 1.53846 0
-7.69231 1.53846 0
-6.92308 1.53846 0
-6.15385 1.53846 0
-5.38462 1.53846 0
-4.61538 1.53846 0
-3.84615 1.53846 0
-3.07692 1.53846 0
-2.30769 1.53846 0
-1.53846 1.53846 0
-0.769231 1.53846 0
5.55112e-016 1.53846 0
0.769231 1.53846 0
1.53846 1.53846 0
2.30769 1.53846 0
3.07692 1.53846 0
3.84615 1.53846 0
4.61538 1.53846 0
5.38462 1.53846 0
6.15385 1.53846 0
6.92308 1.53846 0
7.69231 1.53846 0
8.46154 1.53846 0
10 1.53846 0
-10 2.30769 0
-9.23077 2.30769 0
-8.46154 2.30769 0
-7.69231 2.30769 0
-6.92308 2.30769 0
-6.15385 2.30769 0
-5.38462 2.30769 0
-4.61538 2.30769 0
-3.84615 2.30769 0
-3.07692 2.30769 0
-2.30769 2.30769 0
-1.53846 2.30769 0
-0.769231 2.30769 0
5.55112e-016 2.30769 0
0.769231 2.30769 0
1.53846 2.30769 0
2.30769 2.30769 0
3.07692 2.30769 0
3.84615 2.30769 0
4.61538 2.30769 0
5.38462 2.30769 0
6.15385 2.30769 0
6.92308 2.30769 0
7.69231 2.30769 0
8.46154 2.30769 0
10 2.30769 0
-10 3.07692 0
-9.23077 3.07692 0
-8.46154 3.07692 0
-7.69231 3.07692 0
-6.92308 3.07692 0
-6.15385 3.07692 0
-5.38462 3.07692 0
-4.61538 3.07692 0
-3.84615 3.07692 0
-3.07692 3.07692 0
-2.30769 3.07692 0
-1.53846 3.07692 0
-0.769231 3.07692 0
5.55112e-016 3.07692 0
0.769231 3.07692 0
1.53846 3.07692 0
2.30769 3.07692 0
3.07692 3.07692 0
3.84615 3.07692 0
4.61538 3.07692 0
5.38462 3.07692 0
6.15385 3.07692 0
6.92308 3.07692 0
7.69231 3.07692 0
8.46154 3.07692 0
10 3.07692 0
-10 3.84615 0
-9.23077 3.84615 0
-8.46154 3.84615 0
-7.69231 3.84615 0
-6.92308 3.84615 0
-6.15385 3.84615 0
-5.38462 3.84615 0
-4.61538 3.84615 0
-3.84615 3.84615 0
-3.07692 3.84615 0
-2.30769 3.84615 0
-1.53846 3.84615 0
-0.769231 3.84615 0
5.55112e-016 3.84615 0
0.769231 3.84615 0
1.53846 3.84615 0
2.30769 3.84615 0
3.07692 3.84615 0
3.84615 3.84615 0
4.61538 3.84615 0
5.38462 3.84615 0
6.15385 3.84615 0
6.92308 3.84615 0
7.69231 3.84615 0
8.46154 3.84615 0
10 3.84615 0
-10 4.61538 0
-9.23077 4.61538 0
-8.46154 4.61538 0
-7.69231 4.61538 0
-6.92308 4.61538 0
-6.15385 4.61538 0
-5.38462 4.61538 0
-4.61538 4.61538 0
-3.84615 4.61538 0
-3.07692 4.61538 0
-2.30769 4.61538 0
-1.53846 4.61538 0
-0.769231 4.61538 0
5.55112e-016 4.61538 0
0.769231 4.61538 0
1.53846 4.61538 0
2.30769 4.61538 0
3.07692 4.61538 0
3.84615 4.61538 0
4.61538 4.61538 0
5.38462 4.61538 0
6.15385 4.61538 0
6.92308 4.61538 0
7.69231 4.61538 0
8.46154 4.61538 0
10 4.61538 0
-10 5.38462 0
-9.23077 5.38462 0
-8.46154 5.38462 0
-7.69231 5.38462 0
-6.92308 5.38462 0
-6.15385 5.38462 0
-5.38462 5.38462 0
-4.61538 5.38462 0
-3.84615 5.38462 0
-3.07692 5.38462 0
-2.30769 5.38462 0
-1.53846 5.38462 0
-0.769231 5.38462 0
5.55112e-016 5.38462 0
0.769231 5.38462 0
1.53846 5.38462 0
2.30769 5.38462 0
3.07692 5.38462 0
3.84615 5.38462 0
4.61538 5.38462 0
5.38462 5.38462 0
6.15385 5.38462 0
6.92308 5.38462 0
7.69231 5.38462 0
8.46154 5.38462 0
10 5.38462 0
-10 6.15385 0
-9.23077 6.15385 0
-8.46154 6.15385 0
-7.69231 6.15385 0
-6.92308 6.15385 0
-6.15385 6.15385 0
-5.38462 6.15385 0
-4.61538 6.15385 0
-3.84615 6.15385 0
-3.07692 6.15385 0
-2.30769 6.15385 0
-1.53846 6.15385 0
-0.769231 6.15385 0
5.55112e-016 6.15385 0
0.769231 6.15385 0
1.53846 6.15385 0
2.30769 6.15385 0
3.07692 6.15385 0
3.84615 6.15385 0
4.61538 6.15385 0
5.38462 6.15385 0
6.15385 6.15385 0
6.92308 6.15385 0
7.69231 6.15385 0
8.46154 6.15385 0
10 6.15385 0
-10 6.92308 0
-9.23077 6.92308 0
-8.46154 6.92308 0
-7.69231 6.92308 0
-6.92308 6.92308 0
-6.15385 6.92308 0
-5.38462 6.92308 0
-4.61538 6.92308 0
-3.84615 6.92308 0
-3.07692 6.92308 0
-2.30769 6.92308 0
-1.53846 6.92308 0
-0.769231 6.92308 0
5.55112e-016 6.92308 0
0.769231 6.92308 0
1.53846 6.92308 0
2.30769 6.92308 0
3.07692 6.92308 0
3.84615 6.92308 0
4.61538 6.92308 0
5.38462 6.92308 0
6.15385 6.92308 0
6.92308 6.92308 0
7.69231 6.92308 0
8.46154 6.92308 0
10 6.92308 0
-10 7.69231 0
-9.23077 7.69231 0
-8.46154 7.69231 0
-7.69231 7.69231 0
-6.92308 7.69231 0
-6.15385 7.69231 0
-5.38462 7.69231 0
-4.61538 7.69231 0
-3.84615 7.69231 0
-3.07692 7.69231 0
-2.30769 7.69231 0
-1.53846 7.69231 0
-0.769231 7.69231 0
5.55112e-016 7.69231 0
0.769231 7.69231 0
1.53846 7.69231 0
2.30769 7.69231 0
3.07692 7.69231 0
3.84615 7.69231 0
4.61538 7.69231 0
5.38462 7.69231 0
6.15385 7.69231 0
6.92308 7.69231 0
7.69231 7.69231 0
8.46154 7.69231 0
10 7.69231 0
-10 8.46154 0
-9.23077 8.46154 0
-8.46154 8.46154 0
-7.69231 8.46154 0
-6.92308 8.46154 0
-6.15385 8.46154 0
-5.38462 8.46154 0
-4.61538 8.46154 0
-3.84615 8.46154 0
-3.07692 8.46154 0
-2.30769 8.46154 0
-1.53846 8.46154 0
-0.769231 8.46154 0
5.55112e-016 8.46154 0
0.769231 8.46154 0
1.53846 8.46154 0
2.30769 8.46154 0
3.07692 8.46154 0
3.84615 8.46154 0
4.61538 8.46154 0
5.38462 8.46154 0
6.15385 8.46154 0
6.92308 8.46154 0
7.69231 8.46154 0
8.46154 8.46154 0
10 8.46154 0
-10 10 0
-9.23077 10 0
-8.46154 10 0
-7.69231 10 0
-6.92308 10 0
-6.15385 10 0
-5.38462 10 0
-4.61538 10 0
-3.84615 10 0
-3.07692 10 0
-2.30769 10 0
-1.53846 10 0
-0.769231 10 0
5.55112e-016 10 0
0.769231 10 0
1.53846 10 0
2.30769 10 0
3.07692 10 0
3.84615 10 0
4.61538 10 0
5.38462 10 0
6.15385 10 0
6.92308 10 0
7.69231 10 0
8.46154 10 0
10 10 0

POINT_DATA 676
SCALARS h double 1
LOOkUP_TABLE default
0.016554
0.0377798
0.0743597
0.126474
0.186384
0.238232
0.264696
0.257129
0.220667
0.169862
0.119559
0.0786671
0.0495358
0.0305518
0.0188554
0.0118598
0.00771373
0.00524194
0.00374404
0.00281571
0.00223165
0.0018954
0.00189579
0.00282447
0.00650559
0.016554
0.00605061
0.0146461
0.031824
0.0595614
0.0959286
0.13338
0.160624
0.168432
0.155197
0.127364
0.0947529
0.0652621
0.0425939
0.0269854
0.0169922
0.0108665
0.00718642
0.0049797
0.00364015
0.00280782
0.00227495
0.00192874
0.00173657
0.00181713
0.00272889
0.00605061
0.00270891
0.00550643
0.0122733
0.0249894
0.0440545
0.066816
0.0874419
0.0992904
0.0986536
0.0868279
0.0688045
0.0500772
0.0342477
0.0225582
0.0146768
0.0096632
0.00657418
0.00469122
0.00353594
0.00281251
0.00234542
0.00203397
0.00182712
0.00172666
0.00185872
0.00270891
0.00208488
0.00287777
0.00513731
0.0101342
0.0188
0.0307026
0.043461
0.0533669
0.0572316
0.0541931
0.0459928
0.035649
0.0258033
0.0178813
0.0121813
0.00837149
0.00593559
0.00440968
0.00345488
0.00284916
0.00245577
0.0021937
0.00201762
0.00190937
0.00188994
0.00208488
0.00234444
0.00264098
0.0034291
0.00526851
0.00881205
0.014304
0.021049
0.0273794
0.0313522
0.031795
0.0289042
0.0239577
0.0184935
0.0136265
0.00984343
0.00715724
0.00535655
0.00418748
0.00343803
0.0029575
0.00264778
0.00244831
0.00232392
0.00225786
0.00225206
0.00234444
0.00305928
0.00331554
0.0037707
0.00462168
0.00614781
0.00856617
0.0117589
0.0151156
0.0177084
0.0187484
0.0180045
0.0158709
0.0130761
0.010301
0.00795837
0.00618236
0.00493022
0.00408941
0.00354411
0.0032016
0.00299594
0.00288356
0.00283822
0.00284783
0.00291414
0.00305928
0.00431978
0.00467098
0.0051342
0.00576705
0.00663714
0.00780473
0.00923969
0.0107395
0.0119468
0.0124973
0.0122097
0.011176
0.00969509
0.00811358
0.00669223
0.0055594
0.00473612
0.00418518
0.00385047
0.00367757
0.00362122
0.00364711
0.00373264
0.00386767
0.00405591
0.00431978
0.00647236
0.0069684
0.00751715
0.00812149
0.0087521
0.00936899
0.0099206
0.0103344
0.0105146
0.010369
0.00985798
0.00903118
0.00801843
0.00698086
0.00605576
0.00532658
0.00482366
0.00454083
0.0044521
0.00452176
0.00471018
0.00497897
0.00529737
0.0056482
0.00603201
0.00647236
0.0101361
0.0107949
0.0113944
0.0119119
0.0122787
0.0124238
0.0123004
0.0119037
0.0112665
0.0104432
0.00949687
0.00849765
0.00752227
0.00664799
0.00594156
0.00545095
0.00520352
0.00520796
0.00545471
0.00591367
0.00653397
0.00725094
0.00800102
0.00873799
0.00944382
0.0101361
0.0163399
0.0171519
0.0176643
0.0178516
0.0176511
0.0170313
0.0160182
0.0147003
0.0132064
0.0116698
0.0101999
0.00887282
0.00773881
0.00683461
0.00619371
0.00585137
0.00584474
0.006207
0.00695344
0.00806097
0.00945274
0.0110029
0.0125657
0.0140154
0.0152764
0.0163399
0.0267528
0.0276852
0.0278292
0.0272023
0.0258229
0.0238009
0.0213361
0.0186748
0.0160492
0.0136324
0.0115247
0.00976738
0.00836846
0.00732968
0.00666739
0.00642442
0.00667215
0.00750007
0.00898583
0.0111439
0.0138725
0.0169392
0.0200265
0.0228201
0.0250922
0.0267528
0.0439896
0.0450422
0.0443449
0.0420612
0.038441
0.0339134
0.0290119
0.0242392
0.0199512
0.0163197
0.0133704
0.0110493
0.00928312
0.00802069
0.00726005
0.00706363
0.00756428
0.00895673
0.011455
0.0151946
0.0201012
0.0258055
0.0316844
0.0370256
0.0412339
0.0439896
0.0718571
0.0732852
0.0711103
0.0658345
0.058234
0.0493847
0.0404263
0.032274
0.0254345
0.020017
0.015876
0.0127739
0.0104917
0.00888745
0.00792242
0.0076767
0.00836314
0.0103345
0.0140471
0.0199168
0.0280582
0.0380296
0.0487728
0.0588442
0.0668451
0.0718571
0.115114
0.118035
0.113887
0.10378
0.089544
0.0734986
0.0578812
0.0442942
0.0334498
0.0253006
0.0193831
0.0151396
0.0121065
0.00998588
0.00866173
0.00820793
0.00891125
0.0113116
0.0162117
0.0245293
0.0368899
0.0530685
0.071614
0.0899852
0.105257
0.115114
0.177893
0.185508
0.179977
0.163156
0.138708
0.11123
0.0849498
0.0626871
0.0455049
0.033086
0.0244337
0.0184638
0.0143132
0.011425
0.00953625
0.00866089
0.00911423
0.0115957
0.0172906
0.027815
0.0447443
0.0686855
0.0982849
0.129846
0.158078
0.177893
0.259932
0.279176
0.275825
0.251848
0.213486
0.169137
0.126559
0.0908222
0.0637375
0.0446512
0.0317569
0.0231477
0.0173295
0.0133294
0.0106308
0.00910167
0.00899782
0.0110763
0.016811
0.0285391
0.0491308
0.0808422
0.123536
0.173166
0.221796
0.259932
0.351292
0.393557
0.401242
0.373926
0.320144
0.253691
0.188133
0.132632
0.0906992
0.0615059
0.0421741
0.0296009
0.0213421
0.0157844
0.0120087
0.00962461
0.00871052
0.00992177
0.0147932
0.0261299
0.0480464
0.0850029
0.13951
0.20912
0.284556
0.351292
0.429775
0.508098
0.541391
0.521794
0.45718
0.366973
0.272946
0.191109
0.128531
0.0849399
0.0563452
0.0380945
0.0264179
0.0187761
0.0136586
0.0102882
0.00844841
0.00852592
0.0118287
0.0211591
0.0413031
0.0786748
0.13925
0.224552
0.327214
0.429775
0.467229
0.588619
0.662941
0.669005
0.607521
0.500172
0.377589
0.2655
0.177374
0.115175
0.074339
0.0485555
0.0324143
0.0221553
0.0154693
0.0110648
0.00834223
0.00730718
0.00880643
0.0151495
0.0309277
0.0633864
0.121324
0.211363
0.331759
0.467229
0.445234
0.602156
0.723532
0.772807
0.735926
0.628932
0.487585
0.34816
0.233463
0.15035
0.0951518
0.060373
0.038926
0.0256455
0.017256
0.011848
0.00839413
0.00649661
0.00645486
0.00977404
0.0201016
0.04411
0.0914978
0.17274
0.293217
0.445234
0.368901
0.538331
0.694906
0.792528
0.799564
0.717222
0.577542
0.423509
0.288143
0.185929
0.116453
0.0723362
0.0453099
0.0288967
0.0188198
0.0125105
0.00851246
0.00607528
0.00502768
0.00604459
0.0114609
0.0263874
0.0594034
0.121941
0.224516
0.368901
0.264969
0.418574
0.583214
0.714897
0.770522
0.732596
0.619329
0.471603
0.329213
0.215203
0.13481
0.0827738
0.0507808
0.0315517
0.0199973
0.012958
0.00859489
0.00588484
0.00434221
0.00403264
0.00605753
0.0136144
0.0330444
0.0741241
0.148605
0.264969
0.164992
0.282927
0.426846
0.564904
0.654571
0.664997
0.595868
0.47619
0.344915
0.231055
0.146438
0.0898628
0.0545357
0.0332897
0.0206732
0.013142
0.00857869
0.00577276
0.00406457
0.00319439
0.00344672
0.00632826
0.0157221
0.0386279
0.0849169
0.164992
0.0890308
0.166473
0.272741
0.390952
0.4892
0.534348
0.511549
0.433139
0.329038
0.228504
0.148285
0.0920354
0.0558788
0.0338467
0.0207679
0.0130437
0.00844089
0.00565428
0.0039453
0.00292443
0.00250185
0.0031339
0.00662143
0.0171739
0.041705
0.0890308
0.0414155
0.0851907
0.152306
0.237184
0.321509
0.379201
0.390166
0.352737
0.283668
0.206411
0.138746
0.0881506
0.0541805
0.0329244
0.0201527
0.0126069
0.00814534
0.00547523
0.00384862
0.00284484
0.00225584
0.00210509
0.00295367
0.00671499
0.0174909
0.0414155
0.016554
0.0377798
0.0743597
0.126474
0.186384
0.238232
0.264696
0.257129
0.220667
0.169862
0.119559
0.0786671
0.0495358
0.0305518
0.0188554
0.0118598
0.00771373
0.00524194
0.00374404
0.00281571
0.00223165
0.0018954
0.00189579
0.00282447
0.00650559
0.016554

VECTORS u double
-122.306 107.883 0.0
-126.889 110.672 0.0
-130.755 112.175 0.0
-134.4 113.077 0.0
-137.932 113.577 0.0
-141.276 113.69 0.0
-144.276 113.37 0.0
-146.763 112.558 0.0
-148.596 111.208 0.0
-149.684 109.304 0.0
-149.983 106.866 0.0
-149.482 103.955 0.0
-148.19 100.677 0.0
-146.123 97.1807 0.0
-143.312 93.6425 0.0
-139.805 90.2536 0.0
-135.682 87.2005 0.0
-131.07 84.6479 0.0
-126.15 82.7187 0.0
-121.126 81.4763 0.0
-116.188 80.9478 0.0
-111.573 81.3578 0.0
-108.397 84.2003 0.0
-110.24 92.4825 0.0
-116.686 102.185 0.0
-122.306 107.883 0.0
-114.836 102.779 0.0
-121.878 107.559 0.0
-127.038 109.94 0.0
-131.264 111.223 0.0
-135.058 111.923 0.0
-138.541 112.192 0.0
-141.646 112.038 0.0
-144.245 111.424 0.0
-146.21 110.312 0.0
-147.449 108.684 0.0
-147.907 106.552 0.0
-147.56 103.963 0.0
-146.396 101.003 0.0
-144.412 97.7981 0.0
-141.617 94.5145 0.0
-138.051 91.3499 0.0
-133.817 88.5196 0.0
-129.094 86.2247 0.0
-124.128 84.6087 0.0
-119.171 83.7224 0.0
-114.416 83.5243 0.0
-109.975 83.942 0.0
-106.045 85.0889 0.0
-103.904 88.0581 0.0
-107.228 94.9271 0.0
-114.836 102.779 0.0
-103.864 97.8077 0.0
-112.701 103.44 0.0
-120.657 107.076 0.0
-126.592 109.013 0.0
-131.27 110.023 0.0
-135.214 110.479 0.0
-138.586 110.493 0.0
-141.368 110.07 0.0
-143.487 109.185 0.0
-144.871 107.821 0.0
-145.47 105.979 0.0
-145.252 103.695 0.0
-144.192 101.037 0.0
-142.27 98.1181 0.0
-139.485 95.1004 0.0
-135.882 92.1981 0.0
-131.598 89.6601 0.0
-126.87 87.7204 0.0
-121.996 86.5291 0.0
-117.244 86.1098 0.0
-112.785 86.3743 0.0
-108.681 87.182 0.0
-104.94 88.4103 0.0
-101.735 90.0889 0.0
-100.336 92.8308 0.0
-103.864 97.8077 0.0
-97.5101 98.5567 0.0
-101.534 101.517 0.0
-109.94 104.626 0.0
-118.496 106.849 0.0
-125.23 108.1 0.0
-130.42 108.698 0.0
-134.519 108.831 0.0
-137.746 108.553 0.0
-140.16 107.853 0.0
-141.76 106.714 0.0
-142.527 105.129 0.0
-142.441 103.119 0.0
-141.479 100.741 0.0
-139.617 98.1028 0.0
-136.86 95.3776 0.0
-133.279 92.8089 0.0
-129.056 90.6832 0.0
-124.477 89.2527 0.0
-119.862 88.6457 0.0
-115.461 88.8313 0.0
-111.404 89.6643 0.0
-107.714 90.9622 0.0
-104.361 92.5628 0.0
-101.33 94.3498 0.0
-98.7951 96.286 0.0
-97.5101 98.5567 0.0
-97.1691 103.214 0.0
-97.4348 104.803 0.0
-100.867 106.022 0.0
-107.906 106.868 0.0
-116.03 107.364 0.0
-123.077 107.559 0.0
-128.597 107.489 0.0
-132.771 107.144 0.0
-135.805 106.483 0.0
-137.819 105.462 0.0
-138.873 104.051 0.0
-138.991 102.254 0.0
-138.176 100.12 0.0
-136.429 97.764 0.0
-133.782 95.3852 0.0
-130.348 93.2684 0.0
-126.353 91.7299 0.0
-122.106 91.0088 0.0
-117.911 91.1712 0.0
-113.98 92.1037 0.0
-110.402 93.5934 0.0
-107.181 95.4194 0.0
-104.277 97.4042 0.0
-101.66 99.4228 0.0
-99.3424 101.384 0.0
-97.1691 103.214 0.0
-98.9507 108.598 0.0
-98.7589 109.863 0.0
-99.864 110.535 0.0
-103.078 110.464 0.0
-108.527 109.734 0.0
-115.108 108.695 0.0
-121.369 107.645 0.0
-126.523 106.642 0.0
-130.39 105.602 0.0
-133.029 104.409 0.0
-134.538 102.975 0.0
-134.995 101.263 0.0
-134.449 99.3091 0.0
-132.944 97.2394 0.0
-130.557 95.2897 0.0
-127.44 93.7815 0.0
-123.84 93.0327 0.0
-120.062 93.2241 0.0
-116.381 94.3191 0.0
-112.977 96.1003 0.0
-109.923 98.2821 0.0
-107.209 100.609 0.0
-104.799 102.898 0.0
-102.665 105.037 0.0
-100.811 106.953 0.0
-98.9507 108.598 0.0
-101.609 113.892 0.0
-101.688 114.786 0.0
-102.586 115.127 0.0
-104.618 114.809 0.0
-107.888 113.768 0.0
-112.226 112.099 0.0
-117.092 110.087 0.0
-121.775 108.039 0.0
-125.722 106.106 0.0
-128.659 104.273 0.0
-130.514 102.453 0.0
-131.306 100.579 0.0
-131.084 98.6681 0.0
-129.907 96.8535 0.0
-127.873 95.3954 0.0
-125.148 94.6257 0.0
-121.98 94.8213 0.0
-118.667 96.0602 0.0
-115.481 98.1697 0.0
-112.598 100.811 0.0
-110.078 103.625 0.0
-107.899 106.336 0.0
-106.011 108.775 0.0
-104.382 110.864 0.0
-103.014 112.569 0.0
-101.609 113.892 0.0
-104.787 118.772 0.0
-105.158 119.259 0.0
-106.193 119.219 0.0
-108.076 118.614 0.0
-110.763 117.41 0.0
-114.064 115.614 0.0
-117.68 113.322 0.0
-121.25 110.726 0.0
-124.426 108.045 0.0
-126.939 105.44 0.0
-128.63 102.98 0.0
-129.427 100.69 0.0
-129.313 98.63 0.0
-128.308 96.9622 0.0
-126.482 95.9634 0.0
-123.987 95.9524 0.0
-121.076 97.1333 0.0
-118.076 99.4428 0.0
-115.284 102.535 0.0
-112.877 105.933 0.0
-110.881 109.218 0.0
-109.236 112.124 0.0
-107.862 114.537 0.0
-106.714 116.433 0.0
-105.79 117.829 0.0
-104.787 118.772 0.0
-108.231 123.06 0.0
-108.838 123.217 0.0
-110.011 122.858 0.0
-111.901 121.975 0.0
-114.437 120.562 0.0
-117.409 118.628 0.0
-120.532 116.217 0.0
-123.51 113.423 0.0
-126.088 110.395 0.0
-128.081 107.303 0.0
-129.373 104.312 0.0
-129.892 101.572 0.0
-129.598 99.255 0.0
-128.475 97.6054 0.0
-126.56 96.951 0.0
-123.996 97.6151 0.0
-121.078 99.7228 0.0
-118.198 103.032 0.0
-115.692 106.981 0.0
-113.708 110.95 0.0
-112.207 114.5 0.0
-111.063 117.426 0.0
-110.161 119.695 0.0
-109.441 121.347 0.0
-108.901 122.441 0.0
-108.231 123.06 0.0
-111.742 126.713 0.0
-112.548 126.663 0.0
-113.844 126.102 0.0
-115.766 125.027 0.0
-118.239 123.439 0.0
-121.06 121.352 0.0
-123.959 118.8 0.0
-126.659 115.852 0.0
-128.928 112.614 0.0
-130.605 109.233 0.0
-131.59 105.891 0.0
-131.825 102.8 0.0
-131.263 100.223 0.0
-129.873 98.5018 0.0
-127.673 98.0579 0.0
-124.823 99.2673 0.0
-121.698 102.194 0.0
-118.799 106.384 0.0
-116.503 111.025 0.0
-114.9 115.374 0.0
-113.851 119.026 0.0
-113.159 121.877 0.0
-112.675 123.981 0.0
-112.332 125.43 0.0
-112.127 126.307 0.0
-111.742 126.713 0.0
-115.195 129.765 0.0
-116.185 129.632 0.0
-117.604 128.985 0.0
-119.577 127.818 0.0
-122.026 126.13 0.0
-124.756 123.93 0.0
-127.511 121.246 0.0
-130.028 118.138 0.0
-132.092 114.703 0.0
-133.552 111.083 0.0
-134.315 107.464 0.0
-134.325 104.082 0.0
-133.528 101.244 0.0
-131.869 99.3691 0.0
-129.338 98.9866 0.0
-126.112 100.578 0.0
-122.671 104.185 0.0
-119.666 109.126 0.0
-117.526 114.314 0.0
-116.259 118.911 0.0
-115.615 122.588 0.0
-115.325 125.357 0.0
-115.216 127.346 0.0
-115.216 128.68 0.0
-115.319 129.449 0.0
-115.195 129.765 0.0
-118.524 132.248 0.0
-119.695 132.141 0.0
-121.242 131.51 0.0
-123.284 130.344 0.0
-125.741 128.636 0.0
-128.422 126.386 0.0
-131.076 123.611 0.0
-133.451 120.362 0.0
-135.343 116.737 0.0
-136.612 112.883 0.0
-137.178 108.997 0.0
-136.995 105.328 0.0
-136.009 102.198 0.0
-134.135 100.064 0.0
-131.314 99.5565 0.0
-127.698 101.313 0.0
-123.87 105.431 0.0
-120.674 111.012 0.0
-118.623 116.663 0.0
-117.637 121.456 0.0
-117.347 125.156 0.0
-117.421 127.885 0.0
-117.662 129.835 0.0
-117.988 131.149 0.0
-118.391 131.914 0.0
-118.524 132.248 0.0
-121.681 134.147 0.0
-123.036 134.157 0.0
-124.719 133.629 0.0
-126.844 132.546 0.0
-129.333 130.893 0.0
-131.997 128.662 0.0
-134.586 125.856 0.0
-136.852 122.512 0.0
-138.594 118.721 0.0
-139.682 114.641 0.0
-140.058 110.487 0.0
-139.698 106.518 0.0
-138.562 103.052 0.0
-136.55 100.542 0.0
-133.53 99.6875 0.0
-129.565 101.324 0.0
-125.288 105.735 0.0
-121.781 111.874 0.0
-119.712 117.985 0.0
-118.931 122.999 0.0
-118.946 126.764 0.0
-119.352 129.514 0.0
-119.926 131.496 0.0
-120.576 132.866 0.0
-121.285 133.708 0.0
-121.681 134.147 0.0
-124.611 135.398 0.0
-126.16 135.592 0.0
-127.985 135.239 0.0
-130.2 134.308 0.0
-132.734 132.781 0.0
-135.4 130.637 0.0
-137.952 127.866 0.0
-140.137 124.487 0.0
-141.752 120.579 0.0
-142.676 116.301 0.0
-142.869 111.889 0.0
-142.343 107.615 0.0
-141.094 103.782 0.0
-139.029 100.805 0.0
-135.946 99.3798 0.0
-131.747 100.542 0.0
-126.989 104.947 0.0
-123.006 111.575 0.0
-120.756 118.225 0.0
-120.078 123.55 0.0
-120.338 127.452 0.0
-121.044 130.28 0.0
-121.938 132.345 0.0
-122.913 133.821 0.0
-123.937 134.794 0.0
-124.611 135.398 0.0
-127.239 135.908 0.0
-128.996 136.327 0.0
-130.972 136.197 0.0
-133.282 135.475 0.0
-135.863 134.129 0.0
-138.538 132.132 0.0
-141.064 129.462 0.0
-143.188 126.119 0.0
-144.7 122.161 0.0
-145.48 117.741 0.0
-145.506 113.104 0.0
-144.827 108.541 0.0
-143.49 104.346 0.0
-141.442 100.863 0.0
-138.453 98.7087 0.0
-134.229 99.0178 0.0
-129.059 102.977 0.0
-124.423 109.967 0.0
-121.762 117.305 0.0
-121.041 123.106 0.0
-121.469 127.243 0.0
-122.435 130.202 0.0
-123.63 132.379 0.0
-124.924 133.984 0.0
-126.27 135.109 0.0
-127.239 135.908 0.0
-129.48 135.6 0.0
-131.459 136.252 0.0
-133.598 136.368 0.0
-136.008 135.886 0.0
-138.634 134.761 0.0
-141.313 132.957 0.0
-143.813 130.443 0.0
-145.883 127.204 0.0
-147.313 123.275 0.0
-147.976 118.789 0.0
-147.861 113.991 0.0
-147.045 109.186 0.0
-145.628 104.665 0.0
-143.624 100.714 0.0
-140.841 97.7971 0.0
-136.858 96.9601 0.0
-131.528 99.8802 0.0
-126.148 106.896 0.0
-122.787 115.093 0.0
-121.817 121.63 0.0
-122.31 126.148 0.0
-123.48 129.294 0.0