# vtk DataFile Version 2.0
Particulate Flow Equations Solution
ASCII
DATASET STRUCTURED_GRID
DIMENSIONS 26 26 1
POINTS 676 double
-45 -45 0
-41.5385 -45 0
-38.0769 -45 0
-34.6154 -45 0
-31.1538 -45 0
-27.6923 -45 0
-24.2308 -45 0
-20.7692 -45 0
-17.3077 -45 0
-13.8462 -45 0
-10.3846 -45 0
-6.92308 -45 0
-3.46154 -45 0
1.77636e-015 -45 0
3.46154 -45 0
6.92308 -45 0
10.3846 -45 0
13.8462 -45 0
17.3077 -45 0
20.7692 -45 0
24.2308 -45 0
27.6923 -45 0
31.1538 -45 0
34.6154 -45 0
38.0769 -45 0
45 -45 0
-45 -41.5385 0
-41.5385 -41.5385 0
-38.0769 -41.5385 0
-34.6154 -41.5385 0
-31.1538 -41.5385 0
-27.6923 -41.5385 0
-24.2308 -41.5385 0
-20.7692 -41.5385 0
-17.3077 -41.5385 0
-13.8462 -41.5385 0
-10.3846 -41.5385 0
-6.92308 -41.5385 0
-3.46154 -41.5385 0
1.77636e-015 -41.5385 0
3.46154 -41.5385 0
6.92308 -41.5385 0
10.3846 -41.5385 0
13.8462 -41.5385 0
17.3077 -41.5385 0
20.7692 -41.5385 0
24.2308 -41.5385 0
27.6923 -41.5385 0
31.1538 -41.5385 0
34.6154 -41.5385 0
38.0769 -41.5385 0
45 -41.5385 0
-45 -38.0769 0
-41.5385 -38.0769 0
-38.0769 -38.0769 0
-34.6154 -38.0769 0
-31.1538 -38.0769 0
-27.6923 -38.0769 0
-24.2308 -38.0769 0
-20.7692 -38.0769 0
-17.3077 -38.0769 0
-13.8462 -38.0769 0
-10.3846 -38.0769 0
-6.92308 -38.0769 0
-3.46154 -38.0769 0
1.77636e-015 -38.0769 0
3.46154 -38.0769 0
6.92308 -38.0769 0
10.3846 -38.0769 0
13.8462 -38.0769 0
17.3077 -38.0769 0
20.7692 -38.0769 0
24.2308 -38.0769 0
27.6923 -38.0769 0
31.1538 -38.0769 0
34.6154 -38.0769 0
38.0769 -38.0769 0
45 -38.0769 0
-45 -34.6154 0
-41.5385 -34.6154 0
-38.0769 -34.6154 0
-34.6154 -34.6154 0
-31.1538 -34.6154 0
-27.6923 -34.6154 0
-24.2308 -34.6154 0
-20.7692 -34.6154 0
-17.3077 -34.6154 0
-13.8462 -34.6154 0
-10.3846 -34.6154 0
-6.92308 -34.6154 0
-3.46154 -34.6154 0
1.77636e-015 -34.6154 0
3.46154 -34.6154 0
6.92308 -34.6154 0
10.3846 -34.6154 0
13.8462 -34.6154 0
17.3077 -34.6154 0
20.7692 -34.6154 0
24.2308 -34.6154 0
27.6923 -34.6154 0
31.1538 -34.6154 0
34.6154 -34.6154 0
38.0769 -34.6154 0
45 -34.6154 0
-45 -31.1538 0
-41.5385 -31.1538 0
-38.0769 -31.1538 0
-34.6154 -31.1538 0
-31.1538 -31.1538 0
-27.6923 -31.1538 0
-24.2308 -31.1538 0
-20.7692 -31.1538 0
-17.3077 -31.1538 0
-13.8462 -31.1538 0
-10.3846 -31.1538 0
-6.92308 -31.1538 0
-3.46154 -31.1538 0
1.77636e-015 -31.1538 0
3.46154 -31.1538 0
6.92308 -31.1538 0
10.3846 -31.1538 0
13.8462 -31.1538 0
17.3077 -31.1538 0
20.7692 -31.1538 0
24.2308 -31.1538 0
27.6923 -31.1538 0
31.1538 -31.1538 0
34.6154 -31.1538 0
38.0769 -31.1538 0
45 -31.1538 0
-45 -27.6923 0
-41.5385 -27.6923 0
-38.0769 -27.6923 0
-34.6154 -27.6923 0
-31.1538 -27.6923 0
-27.6923 -27.6923 0
-24.2308 -27.6923 0
-20.7692 -27.6923 0
-17.3077 -27.6923 0
-13.8462 -27.6923 0
-10.3846 -27.6923 0
-6.92308 -27.6923 0
-3.46154 -27.6923 0
1.77636e-015 -27.6923 0
3.46154 -27.6923 0
6.92308 -27.6923 0
10.3846 -27.6923 0
13.8462 -27.6923 0
17.3077 -27.6923 0
20.7692 -27.6923 0
24.2308 -27.6923 0
27.6923 -27.6923 0
31.1538 -27.6923 0
34.6154 -27.6923 0
38.0769 -27.6923 0
45 -27.6923 0
-45 -24.2308 0
-41.5385 -24.2308 0
-38.0769 -24.2308 0
-34.6154 -24.2308 0
-31.1538 -24.2308 0
-27.6923 -24.2308 0
-24.2308 -24.2308 0
-20.7692 -24.2308 0
-17.3077 -24.2308 0
-13.8462 -24.2308 0
-10.3846 -24.2308 0
-6.92308 -24.2308 0
-3.46154 -24.2308 0
1.77636e-015 -24.2308 0
3.46154 -24.2308 0
6.92308 -24.2308 0
10.3846 -24.2308 0
13.8462 -24.2308 0
17.3077 -24.2308 0
20.7692 -24.2308 0
24.2308 -24.2308 0
27.6923 -24.2308 0
31.1538 -24.2308 0
34.6154 -24.2308 0
38.0769 -24.2308 0
45 -24.2308 0
-45 -20.7692 0
-41.5385 -20.7692 0
-38.0769 -20.7692 0
-34.6154 -20.7692 0
-31.1538 -20.7692 0
-27.6923 -20.7692 0
-24.2308 -20.7692 0
-20.7692 -20.7692 0
-17.3077 -20.7692 0
-13.8462 -20.7692 0
-10.3846 -20.7692 0
-6.92308 -20.7692 0
-3.46154 -20.7692 0
1.77636e-015 -20.7692 0
3.46154 -20.7692 0
6.92308 -20.7692 0
10.3846 -20.7692 0
13.8462 -20.7692 0
17.3077 -20.7692 0
20.7692 -20.7692 0
24.2308 -20.7692 0
27.6923 -20.7692 0
31.1538 -20.7692 0
34.6154 -20.7692 0
38.0769 -20.7692 0
45 -20.7692 0
-45 -17.3077 0
-41.5385 -17.3077 0
-38.0769 -17.3077 0
-34.6154 -17.3077 0
-31.1538 -17.3077 0
-27.6923 -17.3077 0
-24.2308 -17.3077 0
-20.7692 -17.3077 0
-17.3077 -17.3077 0
-13.8462 -17.3077 0
-10.3846 -17.3077 0
-6.92308 -17.3077 0
-3.46154 -17.3077 0
1.77636e-015 -17.3077 0
3.46154 -17.3077 0
6.92308 -17.3077 0
10.3846 -17.3077 0
13.8462 -17.3077 0
17.3077 -17.3077 0
20.7692 -17.3077 0
24.2308 -17.3077 0
27.6923 -17.3077 0
31.1538 -17.3077 0
34.6154 -17.3077 0
38.0769 -17.3077 0
45 -17.3077 0
-45 -13.8462 0
-41.5385 -13.8462 0
-38.0769 -13.8462 0
-34.6154 -13.8462 0
-31.1538 -13.8462 0
-27.6923 -13.8462 0
-24.2308 -13.8462 0
-20.7692 -13.8462 0
-17.3077 -13.8462 0
-13.8462 -13.8462 0
-10.3846 -13.8462 0
-6.92308 -13.8462 0
-3.46154 -13.8462 0
1.77636e-015 -13.8462 0
3.46154 -13.8462 0
6.92308 -13.8462 0
10.3846 -13.8462 0
13.8462 -13.8462 0
17.3077 -13.8462 0
20.7692 -13.8462 0
24.2308 -13.8462 0
27.6923 -13.8462 0
31.1538 -13.8462 0
34.6154 -13.8462 0
38.0769 -13.8462 0
45 -13.8462 0
-45 -10.3846 0
-41.5385 -10.3846 0
-38.0769 -10.3846 0
-34.6154 -10.3846 0
-31.1538 -10.3846 0
-27.6923 -10.3846 0
-24.2308 -10.3846 0
-20.7692 -10.3846 0
-17.3077 -10.3846 0
-13.8462 -10.3846 0
-10.3846 -10.3846 0
-6.92308 -10.3846 0
-3.46154 -10.3846 0
1.77636e-015 -10.3846 0
3.46154 -10.3846 0
6.92308 -10.3846 0
10.3846 -10.3846 0
13.8462 -10.3846 0
17.3077 -10.3846 0
20.7692 -10.3846 0
24.2308 -10.3846 0
27.6923 -10.3846 0
31.1538 -10.3846 0
34.6154 -10.3846 0
38.0769 -10.3846 0
45 -10.3846 0
-45 -6.92308 0
-41.5385 -6.92308 0
-38.0769 -6.92308 0
-34.6154 -6.92308 0
-31.1538 -6.92308 0
-27.6923 -6.92308 0
-24.2308 -6.92308 0
-20.7692 -6.92308 0
-17.3077 -6.92308 0
-13.8462 -6.92308 0
-10.3846 -6.92308 0
-6.92308 -6.92308 0
-3.46154 -6.92308 0
1.77636e-015 -6.92308 0
3.46154 -6.92308 0
6.92308 -6.92308 0
10.3846 -6.92308 0
13.8462 -6.92308 0
17.3077 -6.92308 0
20.7692 -6.92308 0
24.2308 -6.92308 0
27.6923 -6.92308 0
31.1538 -6.92308 0
34.6154 -6.92308 0
38.0769 -6.92308 0
45 -6.92308 0
-45 -3.46154 0
-41.5385 -3.46154 0
-38.0769 -3.46154 0
-34.6154 -3.46154 0
-31.1538 -3.46154 0
-27.6923 -3.46154 0
-24.2308 -3.46154 0
-20.7692 -3.46154 0
-17.3077 -3.46154 0
-13.8462 -3.46154 0
-10.3846 -3.46154 0
-6.92308 -3.46154 0
-3.46154 -3.46154 0
1.77636e-015 -3.46154 0
3.46154 -3.46154 0
6.92308 -3.46154 0
10.3846 -3.46154 0
13.8462 -3.46154 0
17.3077 -3.46154 0
20.7692 -3.46154 0
24.2308 -3.46154 0
27.6923 -3.46154 0
31.1538 -3.46154 0
34.6154 -3.46154 0
38.0769 -3.46154 0
45 -3.46154 0
-45 1.77636e-015 0
-41.5385 1.77636e-015 0
-38.0769 1.77636e-015 0
-34.6154 1.77636e-015 0
-31.1538 1.77636e-015 0
-27.6923 1.77636e-015 0
-24.2308 1.77636e-015 0
-20.7692 1.77636e-015 0
-17.3077 1.77636e-015 0
-13.8462 1.77636e-015 0
-10.3846 1.77636e-015 0
-6.92308 1.77636e-015 0
-3.46154 1.77636e-015 0
1.77636e-015 1.77636e-015 0
3.46154 1.77636e-015 0
6.92308 1.77636e-015 0
10.3846 1.77636e-015 0
13.8462 1.77636e-015 0
17.3077 1.77636e-015 0
20.7692 1.77636e-015 0
24.2308 1.77636e-015 0
27.6923 1.77636e-015 0
31.1538 1.77636e-015 0
34.6154 1.77636e-015 0
38.0769 1.77636e-015 0
45 1.77636e-015 0
-45 3.46154 0
-41.5385 3.46154 0
-38.0769 3.46154 0
-34.6154 3.46154 0
-31.1538 3.46154 0
-27.6923 3.46154 0
-24.2308 3.46154 0
-20.7692 3.46154 0
-17.3077 3.46154 0
-13.8462 3.46154 0
-10.3846 3.46154 0
-6.92308 3.46154 0
-3.46154 3.46154 0
1.77636e-015 3.46154 0
3.46154 3.46154 0
6.92308 3.46154 0
10.3846 3.46154 0
13.8462 3.46154 0
17.3077 3.46154 0
20.7692 3.46154 0
24.2308 3.46154 0
27.6923 3.46154 0
31.1538 3.46154 0
34.6154 3.46154 0
38.0769 3.46154 0
45 3.46154 0
-45 6.92308 0
-41.5385 6.92308 0
-38.0769 6.92308 0
-34.6154 6.92308 0
-31.1538 6.92308 0
-27.6923 6.92308 0
-24.2308 6.92308 0
-20.7692 6.92308 0
-17.3077 6.92308 0
-13.8462 6.92308 0
-10.3846 6.92308 0
-6.92308 6.92308 0
-3.46154 6.92308 0
1.77636e-015 6.92308 0
3.46154 6.92308 0
6.92308 6.92308 0
10.3846 6.92308 0
13.8462 6.92308 0
17.3077 6.92308 0
20.7692 6.92308 0
24.2308 6.92308 0
27.6923 6.92308 0
31.1538 6.92308 0
34.6154 6.92308 0
38.0769 6.92308 0
45 6.92308 0
-45 10.3846 0
-41.5385 10.3846 0
-38.0769 10.3846 0
-34.6154 10.3846 0
-31.1538 10.3846 0
-27.6923 10.3846 0
-24.2308 10.3846 0
-20.7692 10.3846 0
-17.3077 10.3846 0
-13.8462 10.3846 0
-10.3846 10.3846 0
-6.92308 10.3846 0
-3.46154 10.3846 0
1.77636e-015 10.3846 0
3.46154 10.3846 0
6.92308 10.3846 0
10.3846 10.3846 0
13.8462 10.3846 0
17.3077 10.3846 0
20.7692 10.3846 0
24.2308 10.3846 0
27.6923 10.3846 0
31.1538 10.3846 0
34.6154 10.3846 0
38.0769 10.3846 0
45 10.3846 0
-45 13.8462 0
-41.5385 13.8462 0
-38.0769 13.8462 0
-34.6154 13.8462 0
-31.1538 13.8462 0
-27.6923 13.8462 0
-24.2308 13.8462 0
-20.7692 13.8462 0
-17.3077 13.8462 0
-13.8462 13.8462 0
-10.3846 13.8462 0
-6.92308 13.8462 0
-3.46154 13.8462 0
1.77636e-015 13.8462 0
3.46154 13.8462 0
6.92308 13.8462 0
10.3846 13.8462 0
13.8462 13.8462 0
17.3077 13.8462 0
20.7692 13.8462 0
24.2308 13.8462 0
27.6923 13.8462 0
31.1538 13.8462 0
34.6154 13.8462 0
38.0769 13.8462 0
45 13.8462 0
-45 17.3077 0
-41.5385 17.3077 0
-38.0769 17.3077 0
-34.6154 17.3077 0
-31.1538 17.3077 0
-27.6923 17.3077 0
-24.2308 17.3077 0
-20.7692 17.3077 0
-17.3077 17.3077 0
-13.8462 17.3077 0
-10.3846 17.3077 0
-6.92308 17.3077 0
-3.46154 17.3077 0
1.77636e-015 17.3077 0
3.46154 17.3077 0
6.92308 17.3077 0
10.3846 17.3077 0
13.8462 17.3077 0
17.3077 17.3077 0
20.7692 17.3077 0
24.2308 17.3077 0
27.6923 17.3077 0
31.1538 17.3077 0
34.6154 17.3077 0
38.0769 17.3077 0
45 17.3077 0
-45 20.7692 0
-41.5385 20.7692 0
-38.0769 20.7692 0
-34.6154 20.7692 0
-31.1538 20.7692 0
-27.6923 20.7692 0
-24.2308 20.7692 0
-20.7692 20.7692 0
-17.3077 20.7692 0
-13.8462 20.7692 0
-10.3846 20.7692 0
-6.92308 20.7692 0
-3.46154 20.7692 0
1.77636e-015 20.7692 0
3.46154 20.7692 0
6.92308 20.7692 0
10.3846 20.7692 0
13.8462 20.7692 0
17.3077 20.7692 0
20.7692 20.7692 0
24.2308 20.7692 0
27.6923 20.7692 0
31.1538 20.7692 0
34.6154 20.7692 0
38.0769 20.7692 0
45 20.7692 0
-45 24.2308 0
-41.5385 24.2308 0
-38.0769 24.2308 0
-34.6154 24.2308 0
-31.1538 24.2308 0
-27.6923 24.2308 0
-24.2308 24.2308 0
-20.7692 24.2308 0
-17.3077 24.2308 0
-13.8462 24.2308 0
-10.3846 24.2308 0
-6.92308 24.2308 0
-3.46154 24.2308 0
1.77636e-015 24.2308 0
3.46154 24.2308 0
6.92308 24.2308 0
10.3846 24.2308 0
13.8462 24.2308 0
17.3077 24.2308 0
20.7692 24.2308 0
24.2308 24.2308 0
27.6923 24.2308 0
31.1538 24.2308 0
34.6154 24.2308 0
38.0769 24.2308 0
45 24.2308 0
-45 27.6923 0
-41.5385 27.6923 0
-38.0769 27.6923 0
-34.6154 27.6923 0
-31.1538 27.6923 0
-27.6923 27.6923 0
-24.2308 27.6923 0
-20.7692 27.6923 0
-17.3077 27.6923 0
-13.8462 27.6923 0
-10.3846 27.6923 0
-6.92308 27.6923 0
-3.46154 27.6923 0
1.77636e-015 27.6923 0
3.46154 27.6923 0
6.92308 27.6923 0
10.3846 27.6923 0
13.8462 27.6923 0
17.3077 27.6923 0
20.7692 27.6923 0
24.2308 27.6923 0
27.6923 27.6923 0
31.1538 27.6923 0
34.6154 27.6923 0
38.0769 27.6923 0
45 27.6923 0
-45 31.1538 0
-41.5385 31.1538 0
-38.0769 31.1538 0
-34.6154 31.1538 0
-31.1538 31.1538 0
-27.6923 31.1538 0
-24.2308 31.1538 0
-20.7692 31.1538 0
-17.3077 31.1538 0
-13.8462 31.1538 0
-10.3846 31.1538 0
-6.92308 31.1538 0
-3.46154 31.1538 0
1.77636e-015 31.1538 0
3.46154 31.1538 0
6.92308 31.1538 0
10.3846 31.1538 0
13.8462 31.1538 0
17.3077 31.1538 0
20.7692 31.1538 0
24.2308 31.1538 0
27.6923 31.1538 0
31.1538 31.1538 0
34.6154 31.1538 0
38.0769 31.1538 0
45 31.1538 0
-45 34.6154 0
-41.5385 34.6154 0
-38.0769 34.6154 0
-34.6154 34.6154 0
-31.1538 34.6154 0
-27.6923 34.6154 0
-24.2308 34.6154 0
-20.7692 34.6154 0
-17.3077 34.6154 0
-13.8462 34.6154 0
-10.3846 34.6154 0
-6.92308 34.6154 0
-3.46154 34.6154 0
1.77636e-015 34.6154 0
3.46154 34.6154 0
6.92308 34.6154 0
10.3846 34.6154 0
13.8462 34.6154 0
17.3077 34.6154 0
20.7692 34.6154 0
24.2308 34.6154 0
27.6923 34.6154 0
31.1538 34.6154 0
34.6154 34.6154 0
38.0769 34.6154 0
45 34.6154 0
-45 38.0769 0
-41.5385 38.0769 0
-38.0769 38.0769 0
-34.6154 38.0769 0
-31.1538 38.0769 0
-27.6923 38.0769 0
-24.2308 38.0769 0
-20.7692 38.0769 0
-17.3077 38.0769 0
-13.8462 38.0769 0
-10.3846 38.0769 0
-6.92308 38.0769 0
-3.46154 38.0769 0
1.77636e-015 38.0769 0
3.46154 38.0769 0
6.92308 38.0769 0
10.3846 38.0769 0
13.8462 38.0769 0
17.3077 38.0769 0
20.7692 38.0769 0
24.2308 38.0769 0
27.6923 38.0769 0
31.1538 38.0769 0
34.6154 38.0769 0
38.0769 38.0769 0
45 38.0769 0
-45 45 0
-41.5385 45 0
-38.0769 45 0
-34.6154 45 0
-31.1538 45 0
-27.6923 45 0
-24.2308 45 0
-20.7692 45 0
-17.3077 45 0
-13.8462 45 0
-10.3846 45 0
-6.92308 45 0
-3.46154 45 0
1.77636e-015 45 0
3.46154 45 0
6.92308 45 0
10.3846 45 0
13.8462 45 0
17.3077 45 0
20.7692 45 0
24.2308 45 0
27.6923 45 0
31.1538 45 0
34.6154 45 0
38.0769 45 0
45 45 0

POINT_DATA 676
SCALARS h double 1
LOOkUP_TABLE default
2.12876e-005
3.21263e-005
3.68442e-005
3.64884e-005
3.82687e-005
2.75514e-005
2.38837e-005
4.87445e-005
7.67461e-005
7.11473e-005
1.50958e-005
6.30356e-005
0.000663651
0.001686
0.000662584
6.61002e-005
1.09332e-005
5.59601e-005
8.01329e-005
6.2694e-005
1.92252e-005
1.43162e-005
4.45689e-005
3.48498e-005
2.34742e-005
2.12876e-005
3.27222e-005
4.93697e-005
5.66063e-005
5.6052e-005
5.87852e-005
4.23065e-005
3.67045e-005
7.4952e-005
0.000117928
0.000109172
2.31676e-005
9.64636e-005
0.00101578
0.00258065
0.00101418
0.00010116
1.67784e-005
8.58543e-005
0.000123072
9.6381e-005
2.95699e-005
2.19994e-005
6.84623e-005
5.3539e-005
3.60734e-005
3.27222e-005
3.74813e-005
5.65464e-005
6.48278e-005
6.41883e-005
6.73059e-005
4.84126e-005
4.19438e-005
8.59097e-005
0.000134965
0.000124445
2.63567e-005
0.000110361
0.00116179
0.00295161
0.00115999
0.000115724
1.90642e-005
9.76413e-005
0.000139989
0.000109696
3.37315e-005
2.51714e-005
7.83364e-005
6.13086e-005
4.13134e-005
3.74813e-005
3.7103e-005
5.59757e-005
6.41714e-005
6.35306e-005
6.66891e-005
4.83619e-005
4.21855e-005
9.52431e-005
0.00015131
0.000135447
2.9178e-005
0.000108586
0.00114893
0.00291999
0.00114727
0.000114028
2.10724e-005
0.000105417
0.000151683
0.000119058
3.66724e-005
2.54918e-005
7.83238e-005
6.07233e-005
4.08906e-005
3.7103e-005
3.89983e-005
5.88346e-005
6.74356e-005
6.68255e-005
7.16442e-005
5.64778e-005
4.79861e-005
2.31719e-005
3.32362e-005
8.59886e-005
1.9674e-005
0.000116796
0.00120385
0.00305353
0.00120258
0.00012247
1.34192e-005
7.69124e-005
0.000111373
9.00767e-005
2.28118e-005
4.00863e-005
8.6654e-005
6.34519e-005
4.29878e-005
3.89983e-005
2.71681e-005
4.09778e-005
4.69468e-005
4.6872e-005
5.4773e-005
4.04463e-005
4.62893e-006
0.00021284
0.000311942
1.74793e-005
3.79738e-006
7.0182e-005
0.00083205
0.00214214
0.000820206
5.19825e-005
4.33287e-005
2.64953e-006
1.88653e-005
1.4454e-005
5.41111e-006
1.87464e-005
5.37244e-005
4.42665e-005
3.00041e-005
2.71681e-005
2.68572e-005
4.05407e-005
4.63602e-005
4.75624e-005
5.16899e-005
5.81267e-006
0.000756058
0.00391592
0.00573302
0.00408654
0.00226846
0.00100904
0.00165298
0.00339614
0.00172697
0.00107049
0.00218809
0.0040552
0.00543163
0.00357792
0.000695562
7.22107e-006
5.09744e-005
4.54033e-005
2.95604e-005
2.68572e-005
6.11307e-005
9.23077e-005
0.00010529
0.00011411
3.33462e-005
0.000285367
0.0037354
0.0178754
0.0259557
0.0189321
0.0104126
0.00507583
0.00644969
0.0113149
0.00639021
0.00507287
0.010307
0.0190279
0.0254254
0.0167202
0.00314063
2.50098e-005
0.000141445
0.000107524
6.69588e-005
6.11307e-005
8.94244e-005
0.000134966
0.000153741
0.000164727
0.000127856
2.29725e-005
0.00486972
0.024177
0.0349368
0.0253845
0.0139964
0.00671672
0.00841358
0.0149916
0.0082661
0.00671384
0.0139312
0.0254958
0.0342756
0.0226509
0.00419428
4.12546e-005
0.000222174
0.000159229
9.77979e-005
8.94244e-005
5.60628e-005
8.45391e-005
9.66045e-005
0.000105815
6.14073e-005
1.37857e-005
0.00329732
0.0168185
0.0240805
0.0173339
0.00957151
0.005027
0.00456227
0.00588602
0.00403296
0.00469026
0.00952101
0.0173708
0.0235369
0.0157123
0.00282788
2.34536e-005
0.000138031
9.92523e-005
6.13259e-005
5.60628e-005
4.09429e-005
6.19978e-005
7.06999e-005
7.58447e-005
6.21875e-005
8.59486e-006
0.00160594
0.00840627
0.0119222
0.00871746
0.00514675
0.00154418
0.000838628
0.0011093
0.000780693
0.00126967
0.00513379
0.00885983
0.0119418
0.0079904
0.00139718
1.85348e-005
0.000100876
7.22806e-005
4.5006e-005
4.09429e-005
1.45999e-005
1.99888e-005
2.38343e-005
2.20819e-005
2.08103e-005
2.00188e-006
0.000692481
0.0036137
0.0053634
0.00425102
0.00109482
0.001804
0.0129001
0.00292117
-0.000178456
0.00102185
0.00294031
0.00499765
0.00687419
0.00392312
0.000632345
5.39951e-006
2.80401e-005
2.66046e-005
1.44805e-005
1.45999e-005
2.28436e-006
2.51228e-006
3.1003e-006
2.59343e-006
2.04367e-006
4.96268e-006
7.11688e-005
0.00117567
0.000566308
0.000987492
0.000380738
0.0174672
0.150291
0.342568
0.148119
0.0169916
0.00217888
0.00192036
0.00272435
0.00125919
7.21262e-005
3.00139e-007
1.42262e-005
4.05349e-006
1.65558e-006
2.28436e-006
9.79219e-005
0.00015124
0.000170971
0.000176767
0.000180338
5.26249e-005
0.000724851
0.0042829
0.00672147
0.00304492
0.00107126
0.331635
2.94189
7.06418
2.954
0.33304
0.00449242
0.00225898
0.00663416
0.00373276
0.000601532
2.85014e-005
0.000222181
0.000159527
0.000110377
9.79219e-005
0.000475591
0.000717504
0.000820811
0.000815416
0.000856363
0.000238141
0.00312422
0.0156449
0.0262462
0.00624879
0.0131519
1.76675
16.0164
38.8949
16.0634
1.76686
0.00562379
0.00780602
0.0230213
0.0139058
0.00262102
0.000147802
0.000999784
0.000776124
0.00052562
0.000475591
0.000644896
0.000969954
0.00111021
0.00109922
0.00115866
0.000350699
0.00345023
0.0162484
0.0261995
0.00514327
0.0381693
2.9913
28.9429
72.2322
29.0235
3.00984
0.0608567
0.00587062
0.0240187
0.0150262
0.00290863
0.000268207
0.00136407
0.0010521
0.00071096
0.000644896
0.00014874
0.000222447
0.000254048
0.00025475
0.000243648
0.000105476
0.00243194
0.0117663
0.0180778
0.00611231
0.0129054
0.790912
7.7593
20.4018
7.76903
0.776928
0.0102683
0.00645218
0.0169793
0.010957
0.00206979
8.73001e-005
0.000319665
0.000243253
0.000164447
0.00014874
5.24792e-005
7.92599e-005
9.04176e-005
9.83379e-005
6.0839e-005
6.53839e-005
0.00254098
0.0124478
0.0179576
0.0157955
0.00287762
0.0223301
0.360368
1.15468
0.358114
0.00717964
0.00843969
0.0146418
0.0175926
0.0116453
0.00213064
2.65236e-005
0.000127423
9.29316e-005
5.73537e-005
5.24792e-005
5.35465e-005
8.08909e-005
9.2544e-005
0.000102937
2.15765e-005
0.000272679
0.00308815
0.0146167
0.0210824
0.0152024
0.00938688
0.00402824
0.0111826
0.0286283
0.00556418
0.00398689
0.00832896
0.0151465
0.0206329
0.0136038
0.00248357
2.73354e-005
0.000143182
9.60911e-005
5.85614e-005
5.35465e-005
4.10294e-005
6.20142e-005
7.14329e-005
8.09432e-005
1.68765e-005
0.000383658
0.00200047
0.00886926
0.0127539
0.00930773
0.00503393
0.00256115
0.00234767
0.00190036
0.0017754
0.00257706
0.00503226
0.0093515
0.0124842
0.00820971
0.00149136
2.56884e-005
0.000116921
7.42088e-005
4.49106e-005
4.10294e-005
1.30049e-005
1.96624e-005
2.2438e-005
2.31323e-005
3.16058e-005
4.69362e-006
0.000193339
0.00095403
0.00143119
0.00104753
0.000616649
0.000164679
0.000639803
0.00161768
0.000767344
0.000262419
0.000582396
0.0010639
0.00142485
0.000911103
0.000179093
8.77931e-006
3.45698e-005
2.29472e-005
1.42966e-005
1.30049e-005
1.58549e-005
2.3912e-005
2.74406e-005
2.69478e-005
3.14249e-005
3.57529e-005
6.67349e-006
1.55309e-005
3.01948e-005
3.23976e-005
8.41651e-006
5.13893e-005
0.000477318
0.00121286
0.000480285
4.74532e-005
3.42459e-006
1.39649e-005
3.01634e-005
3.56656e-005
1.58859e-005
2.44184e-005
2.41016e-005
2.46744e-005
1.76144e-005
1.58549e-005
4.51602e-005
6.81333e-005
7.80798e-005
7.75774e-005
8.30753e-005
5.53973e-005
4.64166e-005
0.00010415
0.000174698
0.000168742
3.79852e-005
0.00013442
0.00140479
0.00357038
0.00140861
0.000144018
2.22049e-005
0.000114514
0.000184747
0.0001636
5.32118e-005
2.47981e-005
9.20707e-005
7.37154e-005
4.98003e-005
4.51602e-005
3.42789e-005
5.17289e-005
5.93058e-005
5.87543e-005
6.13649e-005
4.33979e-005
3.87999e-005
8.16733e-005
0.000129899
0.000120987
2.63622e-005
0.000100789
0.00106391
0.00270364
0.00106273
0.000106004
1.83781e-005
9.34653e-005
0.000134813
0.000106844
3.29967e-005
2.16858e-005
7.16264e-005
5.61266e-005
3.77796e-005
3.42789e-005
2.30227e-005
3.47605e-005
3.98628e-005
3.94685e-005
4.14048e-005
2.98642e-005
2.58361e-005
5.25513e-005
8.26134e-005
7.65163e-005
1.62037e-005
6.82158e-005
0.000717901
0.00182375
0.000716696
7.15008e-005
1.17648e-005
6.0267e-005
8.62499e-005
6.74576e-005
2.07224e-005
1.56536e-005
4.8242e-005
3.76908e-005
2.53775e-005
2.30227e-005
2.12876e-005
3.21263e-005
3.68442e-005
3.64884e-005
3.82687e-005
2.75514e-005
2.38837e-005
4.87445e-005
7.67461e-005
7.11473e-005
1.50958e-005
6.30356e-005
0.000663651
0.001686
0.000662584
6.61002e-005
1.09332e-005
5.59601e-005
8.01329e-005
6.2694e-005
1.92252e-005
1.43162e-005
4.45689e-005
3.48498e-005
2.34742e-005
2.12876e-005

VECTORS u double
2.32201 2.22408 0.0
2.91466 2.22312 0.0
3.39345 2.22263 0.0
3.90554 2.22246 0.0
4.73369 2.22239 0.0
4.78049 2.22199 0.0
7.0086 2.22333 0.0
8.89935 2.22385 0.0
9.1431 2.22246 0.0
8.66062 2.22014 0.0
-15.1141 2.22541 0.0
31.4008 2.21408 0.0
23.4404 2.21346 0.0
-0.351641 2.21346 0.0
-24.1579 2.21357 0.0
-32.7939 2.21406 0.0
20.3006 2.22458 0.0
-6.44498 2.21938 0.0
-7.62783 2.22126 0.0
-7.6909 2.22349 0.0
-6.71922 2.22497 0.0
0.917928 2.22363 0.0
-2.81837 2.22244 0.0
-2.39513 2.22277 0.0
-2.24265 2.22378 0.0
2.32201 2.22408 0.0
2.32139 2.69506 0.0
2.91345 2.69433 0.0
3.39178 2.69392 0.0
3.9036 2.69376 0.0
4.73152 2.69367 0.0
4.77687 2.69316 0.0
7.00782 2.69447 0.0
8.8951 2.69536 0.0
9.13567 2.69429 0.0
8.65794 2.69193 0.0
-15.0842 2.69391 0.0
31.3926 2.68863 0.0
23.4389 2.68859 0.0
-0.351694 2.68878 0.0
-24.1568 2.68869 0.0
-32.7872 2.68876 0.0
20.2752 2.69306 0.0
-6.44373 2.6912 0.0
-7.62136 2.69337 0.0
-7.68668 2.69533 0.0
-6.71824 2.69619 0.0
0.91961 2.69406 0.0
-2.81703 2.69365 0.0
-2.39403 2.69399 0.0
-2.24166 2.69477 0.0
2.32139 2.69506 0.0
2.32112 3.10439 0.0
2.91283 3.10357 0.0
3.3909 3.1031 0.0
3.90257 3.10292 0.0
4.73037 3.10276 0.0
4.7769 3.10182 0.0
7.00591 3.10197 0.0
8.89236 3.10524 0.0
9.13176 3.10319 0.0
8.64883 3.09764 0.0
-15.1362 3.09448 0.0
31.4009 3.09726 0.0
23.4391 3.09772 0.0
-0.351313 3.09803 0.0
-24.1564 3.09786 0.0
-32.7923 3.09764 0.0
20.3309 3.09178 0.0
-6.43457 3.09508 0.0
-7.61837 3.09788 0.0
-7.6846 3.10036 0.0
-6.71429 3.10297 0.0
0.911988 3.10328 0.0
-2.8174 3.10239 0.0
-2.3935 3.10318 0.0
-2.24124 3.10405 0.0
2.32112 3.10439 0.0
2.32105 3.53584 0.0
2.91259 3.53492 0.0
3.39054 3.5344 0.0
3.90206 3.53413 0.0
4.73019 3.53501 0.0
4.76332 3.54553 0.0
7.00241 3.57729 0.0
8.97407 3.29017 0.0
9.15602 3.27973 0.0
8.75701 3.49503 0.0
-14.0472 3.52979 0.0
31.2186 3.53166 0.0
23.428 3.52886 0.0
-0.351506 3.52891 0.0
-24.1477 3.52885 0.0
-32.6699 3.53093 0.0
19.4585 3.5863 0.0
-6.51531 3.57878 0.0
-7.60667 3.58116 0.0
-7.67485 3.58017 0.0
-6.73053 3.55035 0.0
1.03976 3.55962 0.0
-2.80158 3.54392 0.0
-2.3942 3.53421 0.0
-2.24114 3.53545 0.0
2.32105 3.53584 0.0
2.32099 4.2394 0.0
2.91246 4.23834 0.0
3.39027 4.23778 0.0
3.90283 4.23778 0.0
4.72076 4.22656 0.0
4.65733 4.07559 0.0
6.65637 3.94688 0.0
9.46553 -2.62571 0.0
9.47892 -3.50754 0.0
6.98105 2.19937 0.0
-20.0033 1.14034 0.0
31.9177 4.16243 0.0
23.4681 4.22809 0.0
-0.360443 4.23171 0.0
-24.2026 4.22904 0.0
-33.1852 4.18308 0.0
24.3481 0.722305 0.0
-5.16405 3.07111 0.0
-6.97891 3.21073 0.0
-7.19313 3.09461 0.0
-5.04681 2.50182 0.0
-0.320534 3.79125 0.0
-2.8617 4.11733 0.0
-2.38995 4.24139 0.0
-2.2411 4.23912 0.0
2.32099 4.2394 0.0
2.3204 4.09275 0.0
2.91194 4.0909 0.0
3.38924 4.09222 0.0
3.91517 4.07718 0.0
4.58618 3.94699 0.0
3.89622 3.14596 0.0
-0.16023 -8.65048 0.0
8.53318 6.41192 0.0
8.70699 6.09956 0.0
-11.5234 -5.61463 0.0
-27.8947 -5.31458 0.0
35.2087 2.92192 0.0
23.9574 4.14118 0.0
0.2086 4.19506 0.0
-23.3968 4.0704 0.0
-32.0877 2.09448 0.0
-0.647526 9.19548 0.0
54.1474 -34.7057 0.0
-0.673452 -3.88205 0.0
-3.31295 -6.99964 0.0
-2.90434 -6.88856 0.0
1.01038 0.562754 0.0
-2.69623 2.8914 0.0
-2.38738 4.10349 0.0
-2.2405 4.09588 0.0
2.3204 4.09275 0.0
2.32185 6.3052 0.0
2.91342 6.30503 0.0
3.38919 6.30349 0.0
3.9408 6.31878 0.0
4.0914 6.02832 0.0
-8.86563 2.77341 0.0
8.38023 7.16938 0.0
8.57145 7.17576 0.0
9.12177 7.15671 0.0
10.7874 7.15215 0.0
15.1281 7.14077 0.0
22.2402 7.16847 0.0
22.7634 6.2611 0.0
-2.37356 6.0068 0.0
-26.868 6.3606 0.0
-23.6063 7.16016 0.0
-14.7505 7.14604 0.0
-10.8809 7.15379 0.0
-9.17606 7.16999 0.0
-8.64092 7.18321 0.0
-8.3902 7.14361 0.0
7.8291 4.35868 0.0
-2.36379 6.0196 0.0
-2.41041 6.34666 0.0
-2.24238 6.30175 0.0
2.32185 6.3052 0.0
2.32233 7.05691 0.0
2.91375 7.05453 0.0
3.38768 7.05298 0.0
3.87846 7.06333 0.0
-1.70717 7.41047 0.0
7.19521 6.81015 0.0
8.33407 6.87553 0.0
8.56257 6.92331 0.0
9.13148 6.90605 0.0
10.825 6.88362 0.0
15.0191 6.86205 0.0
23.3165 6.9001 0.0
24.2344 5.58297 0.0
-2.36093 4.90222 0.0
-27.5722 5.7347 0.0
-23.6378 6.92032 0.0
-14.845 6.85827 0.0
-10.9123 6.88167 0.0
-9.20088 6.90399 0.0
-8.64498 6.92164 0.0
-8.3878 6.87592 0.0
8.07411 7.15523 0.0
-2.05486 7.06489 0.0
-2.42774 7.05292 0.0
-2.24207 7.05592 0.0
2.32233 7.05691 0.0
2.32119 6.1102 0.0
2.91242 6.10608 0.0
3.38505 6.10384 0.0
3.95308 6.10661 0.0
3.42945 5.81096 0.0
-7.60868 2.4369 0.0
8.33846 6.78086 0.0
8.54824 6.89669 0.0
9.12074 6.87499 0.0
10.8095 6.83632 0.0
15.0451 6.79245 0.0
23.0854 7.07409 0.0
24.5476 3.6224 0.0
-1.43841 1.77094 0.0
-26.5239 3.89972 0.0
-23.3058 7.03921 0.0
-14.9493 6.78331 0.0
-10.8891 6.833 0.0
-9.19113 6.87039 0.0
-8.6307 6.8949 0.0
-8.37174 6.78796 0.0
8.01155 4.40974 0.0
-1.9671 5.95023 0.0
-2.4283 6.08759 0.0
-2.23971 6.10992 0.0
2.32119 6.1102 0.0
2.31879 6.45657 0.0
2.90965 6.45186 0.0
3.38549 6.45093 0.0
3.86207 6.41573 0.0
2.57744 5.44122 0.0
-8.18148 -4.28064 0.0
8.31918 7.34337 0.0
8.53031 7.49845 0.0
9.1083 7.46984 0.0
10.7901 7.42343 0.0
14.9844 7.37888 0.0
23.358 7.09305 0.0
25.335 0.594958 0.0
-2.80286 -3.35079 0.0
-28.0036 1.95581 0.0
-22.943 7.62522 0.0
-14.9802 7.36239 0.0
-10.8828 7.41388 0.0
-9.18425 7.4603 0.0
-8.61387 7.49372 0.0
-8.35212 7.35117 0.0
8.01796 4.09 0.0
-2.0137 6.30224 0.0
-2.4257 6.43966 0.0
-2.23585 6.45499 0.0
2.31879 6.45657 0.0
2.32008 5.88171 0.0
2.91088 5.77272 0.0
3.38715 5.83993 0.0
3.8986 5.69246 0.0
3.39007 3.68224 0.0
-7.9534 -16.0571 0.0
8.30212 8.77325 0.0
8.51446 8.934 0.0
9.09301 8.89967 0.0
10.8488 8.91417 0.0
14.0213 7.37974 0.0
14.8575 -6.63504 0.0
21.7745 -36.594 0.0
-5.90178 -30.419 0.0
-26.9243 -20.8794 0.0
-15.0606 -3.1782 0.0
-12.7977 4.43683 0.0
-10.7662 8.88494 0.0
-9.1191 8.91983 0.0
-8.56956 8.95756 0.0
-8.31985 8.8132 0.0
7.84264 -1.96791 0.0
-1.94323 5.3073 0.0
-2.4275 5.93293 0.0
-2.23959 5.75643 0.0
2.32008 5.88171 0.0
2.32086 -2.89472 0.0
2.91076 -4.89112 0.0
3.38789 -3.60284 0.0
3.90529 -6.75072 0.0
3.25783 -7.77943 0.0
-10.3117 -59.6745 0.0
8.31339 10.9946 0.0
8.49911 11.6039 0.0
9.26918 11.3768 0.0
9.10471 9.68097 0.0
-5.36176 -14.4492 0.0
32.6559 30.8489 0.0
30.7162 43.5933 0.0
15.6612 37.61 0.0
-36.8086 128.772 0.0
-21.7067 19.7149 0.0
2.47209 -87.2277 0.0
1.82387 10.6485 0.0
-5.71 11.8235 0.0
-8.23495 11.8438 0.0
-8.35483 11.0589 0.0
8.0603 -21.2098 0.0
-1.62381 -9.67223 0.0
-2.43496 -2.89314 0.0
-2.24231 -4.66237 0.0
2.32086 -2.89472 0.0
2.31862 -35.5648 0.0
3.02976 -55.0989 0.0
3.40595 -50.4297 0.0
4.27384 -62.1945 0.0
1.22586 -76.6161 0.0
-0.0776029 81.3922 0.0
9.59769 -10.131 0.0
8.43033 15.9843 0.0
16.9193 -5.78195 0.0
-3.91244 -1.11292 0.0
4.65167 -10.3205 0.0
34.573 44.4666 0.0
25.0696 45.7213 0.0
0.24876 46.2765 0.0
-24.6293 45.7548 0.0
-33.7816 42.4223 0.0
-8.0713 -191.383 0.0
5.4329 8.887 0.0
-4.78933 15.8308 0.0
-8.44209 14.5016 0.0
-10.5399 -7.84772 0.0
17.9607 -84.1616 0.0
-2.23236 18.028 0.0
-2.51 -37.6633 0.0
-2.31958 -61.5235 0.0
2.31862 -35.5648 0.0
2.32024 42.175 0.0
2.91245 42.0346 0.0
3.38916 42.0977 0.0
3.90424 41.8754 0.0
4.70417 42.2087 0.0
2.7365 61.0687 0.0
7.70367 24.718 0.0
7.11463 22.4483 0.0
2.155 20.2299 0.0
-14.7739 3.80458 0.0
20.4798 -54.1099 0.0
34.1915 41.1667 0.0
24.5373 42.2535 0.0
0.0836732 43.2004 0.0
-24.4229 42.2404 0.0
-34.0476 40.6167 0.0
-26.6351 -124.643 0.0
12.5955 27.4707 0.0
-4.58091 21.046 0.0
-7.49227 22.351 0.0
-7.56758 23.8293 0.0
5.26179 59.9571 0.0
-2.68854 42.1406 0.0
-2.39156 42.1823 0.0
-2.23853 42.1048 0.0
2.32024 42.175 0.0
2.31749 29.195 0.0
2.90867 29.2299 0.0
3.38558 29.2223 0.0