# vtk DataFile Version 2.0
Particulate Flow Equations Solution
ASCII
DATASET STRUCTURED_GRID
DIMENSIONS 26 26 1
POINTS 676 double
-10 -10 0
-9.23077 -10 0
-8.46154 -10 0
-7.69231 -10 0
-6.92308 -10 0
-6.15385 -10 0
-5.38462 -10 0
-4.61538 -10 0
-3.84615 -10 0
-3.07692 -10 0
-2.30769 -10 0
-1.53846 -10 0
-0.769231 -10 0
5.55112e-016 -10 0
0.769231 -10 0
1.53846 -10 0
2.30769 -10 0
3.07692 -10 0
3.84615 -10 0
4.61538 -10 0
5.38462 -10 0
6.15385 -10 0
6.92308 -10 0
7.69231 -10 0
8.46154 -10 0
10 -10 0
-10 -9.23077 0
-9.23077 -9.23077 0
-8.46154 -9.23077 0
-7.69231 -9.23077 0
-6.92308 -9.23077 0
-6.15385 -9.23077 0
-5.38462 -9.23077 0
-4.61538 -9.23077 0
-3.84615 -9.23077 0
-3.07692 -9.23077 0
-2.30769 -9.23077 0
-1.53846 -9.23077 0
-0.769231 -9.23077 0
5.55112e-016 -9.23077 0
0.769231 -9.23077 0
1.53846 -9.23077 0
2.30769 -9.23077 0
3.07692 -9.23077 0
3.84615 -9.23077 0
4.61538 -9.23077 0
5.38462 -9.23077 0
6.15385 -9.23077 0
6.92308 -9.23077 0
7.69231 -9.23077 0
8.46154 -9.23077 0
10 -9.23077 0
-10 -8.46154 0
-9.23077 -8.46154 0
-8.46154 -8.46154 0
-7.69231 -8.46154 0
-6.92308 -8.46154 0
-6.15385 -8.46154 0
-5.38462 -8.46154 0
-4.61538 -8.46154 0
-3.84615 -8.46154 0
-3.07692 -8.46154 0
-2.30769 -8.46154 0
-1.53846 -8.46154 0
-0.769231 -8.46154 0
5.55112e-016 -8.46154 0
0.769231 -8.46154 0
1.53846 -8.46154 0
2.30769 -8.46154 0
3.07692 -8.46154 0
3.84615 -8.46154 0
4.61538 -8.46154 0
5.38462 -8.46154 0
6.15385 -8.46154 0
6.92308 -8.46154 0
7.69231 -8.46154 0
8.46154 -8.46154 0
10 -8.46154 0
-10 -7.69231 0
-9.23077 -7.69231 0
-8.46154 -7.69231 0
-7.69231 -7.69231 0
-6.92308 -7.69231 0
-6.15385 -7.69231 0
-5.38462 -7.69231 0
-4.61538 -7.69231 0
-3.84615 -7.69231 0
-3.07692 -7.69231 0
-2.30769 -7.69231 0
-1.53846 -7.69231 0
-0.769231 -7.69231 0
5.55112e-016 -7.69231 0
0.769231 -7.69231 0
1.53846 -7.69231 0
2.30769 -7.69231 0
3.07692 -7.69231 0
3.84615 -7.69231 0
4.61538 -7.69231 0
5.38462 -7.69231 0
6.15385 -7.69231 0
6.92308 -7.69231 0
7.69231 -7.69231 0
8.46154 -7.69231 0
10 -7.69231 0
-10 -6.92308 0
-9.23077 -6.92308 0
-8.46154 -6.92308 0
-7.69231 -6.92308 0
-6.92308 -6.92308 0
-6.15385 -6.92308 0
-5.38462 -6.92308 0
-4.61538 -6.92308 0
-3.84615 -6.92308 0
-3.07692 -6.92308 0
-2.30769 -6.92308 0
-1.53846 -6.92308 0
-0.769231 -6.92308 0
5.55112e-016 -6.92308 0
0.769231 -6.92308 0
1.53846 -6.92308 0
2.30769 -6.92308 0
3.07692 -6.92308 0
3.84615 -6.92308 0
4.61538 -6.92308 0
5.38462 -6.92308 0
6.15385 -6.92308 0
6.92308 -6.92308 0
7.69231 -6.92308 0
8.46154 -6.92308 0
10 -6.92308 0
-10 -6.15385 0
-9.23077 -6.15385 0
-8.46154 -6.15385 0
-7.69231 -6.15385 0
-6.92308 -6.15385 0
-6.15385 -6.15385 0
-5.38462 -6.15385 0
-4.61538 -6.15385 0
-3.84615 -6.15385 0
-3.07692 -6.15385 0
-2.30769 -6.15385 0
-1.53846 -6.15385 0
-0.769231 -6.15385 0
5.55112e-016 -6.15385 0
0.769231 -6.15385 0
1.53846 -6.15385 0
2.30769 -6.15385 0
3.07692 -6.15385 0
3.84615 -6.15385 0
4.61538 -6.15385 0
5.38462 -6.15385 0
6.15385 -6.15385 0
6.92308 -6.15385 0
7.69231 -6.15385 0
8.46154 -6.15385 0
10 -6.15385 0
-10 -5.38462 0
-9.23077 -5.38462 0
-8.46154 -5.38462 0
-7.69231 -5.38462 0
-6.92308 -5.38462 0
-6.15385 -5.38462 0
-5.38462 -5.38462 0
-4.61538 -5.38462 0
-3.84615 -5.38462 0
-3.07692 -5.38462 0
-2.30769 -5.38462 0
-1.53846 -5.38462 0
-0.769231 -5.38462 0
5.55112e-016 -5.38462 0
0.769231 -5.38462 0
1.53846 -5.38462 0
2.30769 -5.38462 0
3.07692 -5.38462 0
3.84615 -5.38462 0
4.61538 -5.38462 0
5.38462 -5.38462 0
6.15385 -5.38462 0
6.92308 -5.38462 0
7.69231 -5.38462 0
8.46154 -5.38462 0
10 -5.38462 0
-10 -4.61538 0
-9.23077 -4.61538 0
-8.46154 -4.61538 0
-7.69231 -4.61538 0
-6.92308 -4.61538 0
-6.15385 -4.61538 0
-5.38462 -4.61538 0
-4.61538 -4.61538 0
-3.84615 -4.61538 0
-3.07692 -4.61538 0
-2.30769 -4.61538 0
-1.53846 -4.61538 0
-0.769231 -4.61538 0
5.55112e-016 -4.61538 0
0.769231 -4.61538 0
1.53846 -4.61538 0
2.30769 -4.61538 0
3.07692 -4.61538 0
3.84615 -4.61538 0
4.61538 -4.61538 0
5.38462 -4.61538 0
6.15385 -4.61538 0
6.92308 -4.61538 0
7.69231 -4.61538 0
8.46154 -4.61538 0
10 -4.61538 0
-10 -3.84615 0
-9.23077 -3.84615 0
-8.46154 -3.84615 0
-7.69231 -3.84615 0
-6.92308 -3.84615 0
-6.15385 -3.84615 0
-5.38462 -3.84615 0
-4.61538 -3.84615 0
-3.84615 -3.84615 0
-3.07692 -3.84615 0
-2.30769 -3.84615 0
-1.53846 -3.84615 0
-0.769231 -3.84615 0
5.55112e-016 -3.84615 0
0.769231 -3.84615 0
1.53846 -3.84615 0
2.30769 -3.84615 0
3.07692 -3.84615 0
3.84615 -3.84615 0
4.61538 -3.84615 0
5.38462 -3.84615 0
6.15385 -3.84615 0
6.92308 -3.84615 0
7.69231 -3.84615 0
8.46154 -3.84615 0
10 -3.84615 0
-10 -3.07692 0
-9.23077 -3.07692 0
-8.46154 -3.07692 0
-7.69231 -3.07692 0
-6.92308 -3.07692 0
-6.15385 -3.07692 0
-5.38462 -3.07692 0
-4.61538 -3.07692 0
-3.84615 -3.07692 0
-3.07692 -3.07692 0
-2.30769 -3.07692 0
-1.53846 -3.07692 0
-0.769231 -3.07692 0
5.55112e-016 -3.07692 0
0.769231 -3.07692 0
1.53846 -3.07692 0
2.30769 -3.07692 0
3.07692 -3.07692 0
3.84615 -3.07692 0
4.61538 -3.07692 0
5.38462 -3.07692 0
6.15385 -3.07692 0
6.92308 -3.07692 0
7.69231 -3.07692 0
8.46154 -3.07692 0
10 -3.07692 0
-10 -2.30769 0
-9.23077 -2.30769 0
-8.46154 -2.30769 0
-7.69231 -2.30769 0
-6.92308 -2.30769 0
-6.15385 -2.30769 0
-5.38462 -2.30769 0
-4.61538 -2.30769 0
-3.84615 -2.30769 0
-3.07692 -2.30769 0
-2.30769 -2.30769 0
-1.53846 -2.30769 0
-0.769231 -2.30769 0
5.55112e-016 -2.30769 0
0.769231 -2.30769 0
1.53846 -2.30769 0
2.30769 -2.30769 0
3.07692 -2.30769 0
3.84615 -2.30769 0
4.61538 -2.30769 0
5.38462 -2.30769 0
6.15385 -2.30769 0
6.92308 -2.30769 0
7.69231 -2.30769 0
8.46154 -2.30769 0
10 -2.30769 0
-10 -1.53846 0
-9.23077 -1.53846 0
-8.46154 -1.53846 0
-7.69231 -1.53846 0
-6.92308 -1.53846 0
-6.15385 -1.53846 0
-5.38462 -1.53846 0
-4.61538 -1.53846 0
-3.84615 -1.53846 0
-3.07692 -1.53846 0
-2.30769 -1.53846 0
-1.53846 -1.53846 0
-0.769231 -1.53846 0
5.55112e-016 -1.53846 0
0.769231 -1.53846 0
1.53846 -1.53846 0
2.30769 -1.53846 0
3.07692 -1.53846 0
3.84615 -1.53846 0
4.61538 -1.53846 0
5.38462 -1.53846 0
6.15385 -1.53846 0
6.92308 -1.53846 0
7.69231 -1.53846 0
8.46154 -1.53846 0
10 -1.53846 0
-10 -0.769231 0
-9.23077 -0.769231 0
-8.46154 -0.769231 0
-7.69231 -0.769231 0
-6.92308 -0.769231 0
-6.15385 -0.769231 0
-5.38462 -0.769231 0
-4.61538 -0.769231 0
-3.84615 -0.769231 0
-3.07692 -0.769231 0
-2.30769 -0.769231 0
-1.53846 -0.769231 0
-0.769231 -0.769231 0
5.55112e-016 -0.769231 0
0.769231 -0.769231 0
1.53846 -0.769231 0
2.30769 -0.769231 0
3.07692 -0.769231 0
3.84615 -0.769231 0
4.61538 -0.769231 0
5.38462 -0.769231 0
6.15385 -0.769231 0
6.92308 -0.769231 0
7.69231 -0.769231 0
8.46154 -0.769231 0
10 -0.769231 0
-10 5.55112e-016 0
-9.23077 5.55112e-016 0
-8.46154 5.55112e-016 0
-7.69231 5.55112e-016 0
-6.92308 5.55112e-016 0
-6.15385 5.55112e-016 0
-5.38462 5.55112e-016 0
-4.61538 5.55112e-016 0
-3.84615 5.55112e-016 0
-3.07692 5.55112e-016 0
-2.30769 5.55112e-016 0
-1.53846 5.55112e-016 0
-0.769231 5.55112e-016 0
5.55112e-016 5.55112e-016 0
0.769231 5.55112e-016 0
1.53846 5.55112e-016 0
2.30769 5.55112e-016 0
3.07692 5.55112e-016 0
3.84615 5.55112e-016 0
4.61538 5.55112e-016 0
5.38462 5.55112e-016 0
6.15385 5.55112e-016 0
6.92308 5.55112e-016 0
7.69231 5.55112e-016 0
8.46154 5.55112e-016 0
10 5.55112e-016 0
-10 0.769231 0
-9.23077 0.769231 0
-8.46154 0.769231 0
-7.69231 0.769231 0
-6.92308 0.769231 0
-6.15385 0.769231 0
-5.38462 0.769231 0
-4.61538 0.769231 0
-3.84615 0.769231 0
-3.07692 0.769231 0
-2.30769 0.769231 0
-1.53846 0.769231 0
-0.769231 0.769231 0
5.55112e-016 0.769231 0
0.769231 0.769231 0
1.53846 0.769231 0
2.30769 0.769231 0
3.07692 0.769231 0
3.84615 0.769231 0
4.61538 0.769231 0
5.38462 0.769231 0
6.15385 0.769231 0
6.92308 0.769231 0
7.69231 0.769231 0
8.46154 0.769231 0
10 0.769231 0
-10 1.53846 0
-9.23077 1.53846 0
-8.46154 1.53846 0
-7.69231 1.53846 0
-6.92308 1.53846 0
-6.15385 1.53846 0
-5.38462 1.53846 0
-4.61538 1.53846 0
-3.84615 1.53846 0
-3.07692 1.53846 0
-2.30769 1.53846 0
-1.53846 1.53846 0
-0.769231 1.53846 0
5.55112e-016 1.53846 0
0.769231 1.53846 0
1.53846 1.53846 0
2.30769 1.53846 0
3.07692 1.53846 0
3.84615 1.53846 0
4.61538 1.53846 0
5.38462 1.53846 0
6.15385 1.53846 0
6.92308 1.53846 0
7.69231 1.53846 0
8.46154 1.53846 0
10 1.53846 0
-10 2.30769 0
-9.23077 2.30769 0
-8.46154 2.30769 0
-7.69231 2.30769 0
-6.92308 2.30769 0
-6.15385 2.30769 0
-5.38462 2.30769 0
-4.61538 2.30769 0
-3.84615 2.30769 0
-3.07692 2.30769 0
-2.30769 2.30769 0
-1.53846 2.30769 0
-0.769231 2.30769 0
5.55112e-016 2.30769 0
0.769231 2.30769 0
1.53846 2.30769 0
2.30769 2.30769 0
3.07692 2.30769 0
3.84615 2.30769 0
4.61538 2.30769 0
5.38462 2.30769 0
6.15385 2.30769 0
6.92308 2.30769 0
7.69231 2.30769 0
8.46154 2.30769 0
10 2.30769 0
-10 3.07692 0
-9.23077 3.07692 0
-8.46154 3.07692 0
-7.69231 3.07692 0
-6.92308 3.07692 0
-6.15385 3.07692 0
-5.38462 3.07692 0
-4.61538 3.07692 0
-3.84615 3.07692 0
-3.07692 3.07692 0
-2.30769 3.07692 0
-1.53846 3.07692 0
-0.769231 3.07692 0
5.55112e-016 3.07692 0
0.769231 3.07692 0
1.53846 3.07692 0
2.30769 3.07692 0
3.07692 3.07692 0
3.84615 3.07692 0
4.61538 3.07692 0
5.38462 3.07692 0
6.15385 3.07692 0
6.92308 3.07692 0
7.69231 3.07692 0
8.46154 3.07692 0
10 3.07692 0
-10 3.84615 0
-9.23077 3.84615 0
-8.46154 3.84615 0
-7.69231 3.84615 0
-6.92308 3.84615 0
-6.15385 3.84615 0
-5.38462 3.84615 0
-4.61538 3.84615 0
-3.84615 3.84615 0
-3.07692 3.84615 0
-2.30769 3.84615 0
-1.53846 3.84615 0
-0.769231 3.84615 0
5.55112e-016 3.84615 0
0.769231 3.84615 0
1.53846 3.84615 0
2.30769 3.84615 0
3.07692 3.84615 0
3.84615 3.84615 0
4.61538 3.84615 0
5.38462 3.84615 0
6.15385 3.84615 0
6.92308 3.84615 0
7.69231 3.84615 0
8.46154 3.84615 0
10 3.84615 0
-10 4.61538 0
-9.23077 4.61538 0
-8.46154 4.61538 0
-7.69231 4.61538 0
-6.92308 4.61538 0
-6.15385 4.61538 0
-5.38462 4.61538 0
-4.61538 4.61538 0
-3.84615 4.61538 0
-3.07692 4.61538 0
-2.30769 4.61538 0
-1.53846 4.61538 0
-0.769231 4.61538 0
5.55112e-016 4.61538 0
0.769231 4.61538 0
1.53846 4.61538 0
2.30769 4.61538 0
3.07692 4.61538 0
3.84615 4.61538 0
4.61538 4.61538 0
5.38462 4.61538 0
6.15385 4.61538 0
6.92308 4.61538 0
7.69231 4.61538 0
8.46154 4.61538 0
10 4.61538 0
-10 5.38462 0
-9.23077 5.38462 0
-8.46154 5.38462 0
-7.69231 5.38462 0
-6.92308 5.38462 0
-6.15385 5.38462 0
-5.38462 5.38462 0
-4.61538 5.38462 0
-3.84615 5.38462 0
-3.07692 5.38462 0
-2.30769 5.38462 0
-1.53846 5.38462 0
-0.769231 5.38462 0
5.55112e-016 5.38462 0
0.769231 5.38462 0
1.53846 5.38462 0
2.30769 5.38462 0
3.07692 5.38462 0
3.84615 5.38462 0
4.61538 5.38462 0
5.38462 5.38462 0
6.15385 5.38462 0
6.92308 5.38462 0
7.69231 5.38462 0
8.46154 5.38462 0
10 5.38462 0
-10 6.15385 0
-9.23077 6.15385 0
-8.46154 6.15385 0
-7.69231 6.15385 0
-6.92308 6.15385 0
-6.15385 6.15385 0
-5.38462 6.15385 0
-4.61538 6.15385 0
-3.84615 6.15385 0
-3.07692 6.15385 0
-2.30769 6.15385 0
-1.53846 6.15385 0
-0.769231 6.15385 0
5.55112e-016 6.15385 0
0.769231 6.15385 0
1.53846 6.15385 0
2.30769 6.15385 0
3.07692 6.15385 0
3.84615 6.15385 0
4.61538 6.15385 0
5.38462 6.15385 0
6.15385 6.15385 0
6.92308 6.15385 0
7.69231 6.15385 0
8.46154 6.15385 0
10 6.15385 0
-10 6.92308 0
-9.23077 6.92308 0
-8.46154 6.92308 0
-7.69231 6.92308 0
-6.92308 6.92308 0
-6.15385 6.92308 0
-5.38462 6.92308 0
-4.61538 6.92308 0
-3.84615 6.92308 0
-3.07692 6.92308 0
-2.30769 6.92308 0
-1.53846 6.92308 0
-0.769231 6.92308 0
5.55112e-016 6.92308 0
0.769231 6.92308 0
1.53846 6.92308 0
2.30769 6.92308 0
3.07692 6.92308 0
3.84615 6.92308 0
4.61538 6.92308 0
5.38462 6.92308 0
6.15385 6.92308 0
6.92308 6.92308 0
7.69231 6.92308 0
8.46154 6.92308 0
10 6.92308 0
-10 7.69231 0
-9.23077 7.69231 0
-8.46154 7.69231 0
-7.69231 7.69231 0
-6.92308 7.69231 0
-6.15385 7.69231 0
-5.38462 7.69231 0
-4.61538 7.69231 0
-3.84615 7.69231 0
-3.07692 7.69231 0
-2.30769 7.69231 0
-1.53846 7.69231 0
-0.769231 7.69231 0
5.55112e-016 7.69231 0
0.769231 7.69231 0
1.53846 7.69231 0
2.30769 7.69231 0
3.07692 7.69231 0
3.84615 7.69231 0
4.61538 7.69231 0
5.38462 7.69231 0
6.15385 7.69231 0
6.92308 7.69231 0
7.69231 7.69231 0
8.46154 7.69231 0
10 7.69231 0
-10 8.46154 0
-9.23077 8.46154 0
-8.46154 8.46154 0
-7.69231 8.46154 0
-6.92308 8.46154 0
-6.15385 8.46154 0
-5.38462 8.46154 0
-4.61538 8.46154 0
-3.84615 8.46154 0
-3.07692 8.46154 0
-2.30769 8.46154 0
-1.53846 8.46154 0
-0.769231 8.46154 0
5.55112e-016 8.46154 0
0.769231 8.46154 0
1.53846 8.46154 0
2.30769 8.46154 0
3.07692 8.46154 0
3.84615 8.46154 0
4.61538 8.46154 0
5.38462 8.46154 0
6.15385 8.46154 0
6.92308 8.46154 0
7.69231 8.46154 0
8.46154 8.46154 0
10 8.46154 0
-10 10 0
-9.23077 10 0
-8.46154 10 0
-7.69231 10 0
-6.92308 10 0
-6.15385 10 0
-5.38462 10 0
-4.61538 10 0
-3.84615 10 0
-3.07692 10 0
-2.30769 10 0
-1.53846 10 0
-0.769231 10 0
5.55112e-016 10 0
0.769231 10 0
1.53846 10 0
2.30769 10 0
3.07692 10 0
3.84615 10 0
4.61538 10 0
5.38462 10 0
6.15385 10 0
6.92308 10 0
7.69231 10 0
8.46154 10 0
10 10 0

POINT_DATA 676
SCALARS h double 1
LOOkUP_TABLE default
0.0137992
0.0112321
0.00940891
0.00808381
0.00713279
0.00663584
0.00688076
0.00841966
0.0121323
0.0191537
0.0304656
0.0461853
0.0649463
0.0838729
0.0993455
0.108212
0.108819
0.101443
0.0880921
0.0717941
0.0555889
0.04162
0.0307733
0.0229326
0.0174992
0.0137992
0.0173148
0.0135603
0.0109605
0.00907615
0.00769356
0.00687191
0.00694037
0.00861053
0.0131666
0.022554
0.0389645
0.0637044
0.0957417
0.130857
0.162284
0.182877
0.187777
0.176245
0.151852
0.120975
0.090266
0.0643598
0.0449995
0.0316935
0.022968
0.0173148
0.0224526
0.0167498
0.012928
0.0102197
0.0082349
0.00694183
0.00663039
0.00806549
0.0128204
0.0236501
0.0443466
0.0784386
0.126753
0.18491
0.242663
0.286462
0.30461
0.2924
0.254276
0.20169
0.147772
0.102066
0.0683258
0.0457139
0.0313851
0.0224526
0.0300872
0.0212486
0.0155273
0.0116199
0.00882817
0.00693061
0.00606967
0.00690221
0.0110283
0.0216702
0.0440731
0.0846097
0.147843
0.232008
0.32538
0.407124
0.454348
0.452622
0.403584
0.324129
0.237358
0.161696
0.105357
0.0677907
0.0443545
0.0300872
0.0411431
0.0275296
0.0189874
0.0133939
0.00956111
0.00695873
0.00547317
0.00549289
0.00833577
0.0171077
0.0376881
0.0787889
0.14963
0.254317
0.384486
0.515329
0.611023
0.640342
0.593962
0.490337
0.364535
0.248904
0.160419
0.100755
0.0635573
0.0411431
0.0561348
0.0358461
0.023426
0.015605
0.0104907
0.00711786
0.00503445
0.00426209
0.00561263
0.0115274
0.0273872
0.0625829
0.129797
0.240291
0.394422
0.571374
0.727587
0.812084
0.794172
0.683375
0.52311
0.363098
0.234774
0.145949
0.0899127
0.0561348
0.0745675
0.0459307
0.0287061
0.0181975
0.011611
0.00743529
0.00483657
0.0034623
0.00356455
0.00663863
0.0167134
0.0419452
0.0955404
0.193616
0.346959
0.547032
0.754735
0.906789
0.946419
0.86009
0.687083
0.491283
0.322788
0.201075
0.122427
0.0745675
0.0945185
0.0568119
0.0343584
0.0209672
0.0128465
0.00788194
0.00485486
0.00309914
0.00241913
0.0034128
0.00848071
0.0234236
0.0591208
0.131948
0.259341
0.447282
0.673018
0.877884
0.988187
0.95999
0.810793
0.605118
0.409162
0.258466
0.157299
0.0945185
0.112703
0.0668771
0.039619
0.0235755
0.0140585
0.00839293
0.00501726
0.00303394
0.00197809
0.00184674
0.0036468
0.01071
0.0303612
0.0754504
0.163654
0.310083
0.511216
0.728465
0.891749
0.935743
0.845719
0.667465
0.470636
0.305328
0.187957
0.112703
0.125073
0.0741511
0.0435487
0.025589
0.0150515
0.00887216
0.00524472
0.00312322
0.00191446
0.00134276
0.00158302
0.00400834
0.0126519
0.0357168
0.0865731
0.181377
0.329025
0.514479
0.689057
0.787442
0.769544
0.650141
0.484442
0.327192
0.206439
0.125073
0.127881
0.0767104
0.0451934
0.0265329
0.015584
0.00918965
0.00545283
0.0032689
0.00200303
0.00129973
0.00102474
0.00147459
0.0042378
0.0136324
0.037829
0.0888977
0.178737
0.308091
0.45354
0.567894
0.605063
0.552966
0.440854
0.314239
0.206082
0.127881
0.119132
0.0732633
0.0438185
0.0259925
0.0154144
0.0091998
0.00555037
0.00340181
0.00213904
0.00140737
0.00100934
0.000898466
0.00141993
0.00416868
0.0132621
0.0358985
0.081318
0.155845
0.25351
0.349551
0.408597
0.407326
0.35115
0.26748
0.18485
0.119132
0.0999551
0.0638515
0.0392463
0.023786
0.0143965
0.0087939
0.00546094
0.00346957
0.0022757
0.001563
0.00114539
0.000919476
0.000884932
0.00137099
0.00378272
0.0116072
0.030401
0.0659692
0.119785
0.183042
0.236072
0.258424
0.242961
0.199877
0.147363
0.0999551
0.0747702
0.0502438
0.0321391
0.0201415
0.0125888
0.00796671
0.00515986
0.00344652
0.0023914
0.00173857
0.00133573
0.00108987
0.000950102
0.000936237
0.00132162
0.00319722
0.00916222
0.0229354
0.0473509
0.0811061
0.116279
0.140678
0.145272
0.130204
0.103494
0.0747702
0.0495746
0.0354706
0.0239287
0.0157218
0.0102934
0.00685026
0.00469848
0.00334706
0.00248573
0.00192843
0.00156373
0.00132233
0.00115999
0.00105453
0.0010326
0.00129968
0.00260713
0.00664215
0.0155326
0.0302174
0.048672
0.0655891
0.0749136
0.0737082
0.0637375
0.0495746
0.0292558
0.022558
0.0162867
0.0114078
0.00796675
0.00567806
0.00419189
0.00322327
0.00257876
0.00213867
0.00183073
0.00160965
0.00144558
0.00131968
0.00122667
0.00119564
0.00137314
0.00222643
0.00470138
0.00980635
0.0176037
0.0264851
0.0336088
0.0365103
0.0346035
0.0292558
0.0158464
0.0133039
0.0104397
0.00794542
0.00603906
0.00469171
0.00377193
0.00314342
0.00270337
0.00238499
0.00214704
0.00196319
0.00181571
0.00169356
0.00159337
0.00152289
0.00151467
0.00167237
0.00226092
0.00372584
0.00641933
0.0101329
0.0139229
0.0165361
0.0171574
0.0158464
0.00868024
0.00790852
0.00679194
0.0056847
0.00475533
0.00404835
0.00353522
0.00316553
0.0028948
0.00269172
0.00253532
0.00241056
0.0023063
0.00221648
0.00214254
0.0020952
0.00209503
0.00217608
0.00240155
0.00288694
0.00377437
0.00510338
0.00666669
0.00803083
0.00876162
0.00868024
0.00576514
0.00548157
0.00503427
0.00456053
0.0041327
0.00378449
0.00351835
0.00332309
0.00318582
0.00309542
0.00304093
0.0030102
0.00299159
0.0029786
0.00297482
0.00299589
0.00306618
0.00320969
0.00343915
0.00375325
0.00414603
0.00460818
0.00510123
0.00553264
0.00578068
0.00576514
0.00515371
0.00485071
0.00454185
0.00426721
0.00403174
0.00384311
0.00370725
0.00362926
0.00361306
0.00365789
0.00375423
0.00388351
0.00402385
0.0041598
0.00429115
0.00443539
0.00462026
0.00486615
0.00516404
0.00546423
0.00569385
0.0057979
0.00576737
0.00562887
0.00541561
0.00515371
0.00560279
0.00512537
0.00474829
0.00447304
0.00426953
0.00413063
0.0040656
0.00409333
0.00423272
0.00449052
0.00485117
0.00527601
0.005715
0.00612615
0.0064923
0.00682507
0.00715137
0.0074858
0.00780157
0.00802154
0.00804867
0.00782476
0.00737205
0.00678159
0.00616356
0.00560279
0.00653159
0.00582651
0.00530461
0.00494538
0.00470083
0.00456385
0.00455969
0.00473401
0.0051338
0.00578147
0.00665031
0.00765753
0.00868516
0.00962084
0.0103955
0.010995
0.0114396
0.0117431
0.011877
0.0117679
0.0113407
0.0105826
0.00957572
0.00847015
0.0074201
0.00653159
0.00775221
0.00677347
0.00606056
0.00557024
0.00524381
0.00508786
0.00516393
0.00557334
0.0064281
0.00780076
0.00966358
0.0118538
0.0141013
0.0161133
0.0176696
0.0186691
0.019111
0.019037
0.018482
0.0174684
0.01604
0.0143024
0.0124287
0.0106168
0.00902894
0.00775221
0.00931952
0.00798451
0.0070154
0.00633654
0.00587917
0.00567569
0.00584999
0.00660739
0.00820211
0.0108522
0.0145988
0.0191801
0.024028
0.0284209
0.0317163
0.0335257
0.0337542
0.032537
0.0301537
0.0269658
0.0233679
0.0197331
0.0163629
0.013458
0.0111113
0.00931952
0.0112755
0.00944566
0.00813038
0.00718658
0.00653113
0.00622715
0.00648184
0.00765909
0.0102698
0.0148614
0.0217444
0.0306523
0.040574
0.0499422
0.0571199
0.0609159
0.0608729
0.0572801
0.0510143
0.0432873
0.0353284
0.0280793
0.0220419
0.0173281
0.0138136
0.0112755
0.0137992
0.0112321
0.00940891
0.00808381
0.00713279
0.00663584
0.00688076
0.00841966
0.0121323
0.0191537
0.0304656
0.0461853
0.0649463
0.0838729
0.0993455
0.108212
0.108819
0.101443
0.0880921
0.0717941
0.0555889
0.04162
0.0307733
0.0229326
0.0174992
0.0137992

VECTORS u double
-135.278 98.1114 0.0
-134.402 93.946 0.0
-132.536 90.4925 0.0
-130.073 88.0264 0.0
-126.968 86.8566 0.0
-123.01 87.8503 0.0
-118.328 92.1547 0.0
-114.045 99.5552 0.0
-111.533 107.52 0.0
-110.862 113.831 0.0
-111.243 118.221 0.0
-112.051 121.238 0.0
-113.008 123.363 0.0
-114.05 124.858 0.0
-115.235 125.837 0.0
-116.685 126.327 0.0
-118.535 126.312 0.0
-120.867 125.751 0.0
-123.646 124.582 0.0
-126.691 122.726 0.0
-129.714 120.1 0.0
-132.394 116.658 0.0
-134.455 112.451 0.0
-135.696 107.689 0.0
-136.004 102.746 0.0
-135.278 98.1114 0.0
-138.28 99.5937 0.0
-137.114 95.1262 0.0
-135.122 91.211 0.0
-132.654 88.2502 0.0
-129.594 86.5003 0.0
-125.571 86.9094 0.0
-120.464 91.0797 0.0
-115.503 99.182 0.0
-112.615 108.002 0.0
-111.972 114.68 0.0
-112.548 119.115 0.0
-113.595 122.112 0.0
-114.813 124.246 0.0
-116.136 125.792 0.0
-117.619 126.847 0.0
-119.373 127.426 0.0
-121.518 127.508 0.0
-124.119 127.054 0.0
-127.127 126.013 0.0
-130.346 124.313 0.0
-133.464 121.861 0.0
-136.143 118.572 0.0
-138.104 114.438 0.0
-139.185 109.625 0.0
-139.339 104.501 0.0
-138.28 99.5937 0.0
-141.22 100.865 0.0
-139.773 96.0476 0.0
-137.632 91.7246 0.0
-135.154 88.252 0.0
-132.204 85.82 0.0
-128.306 85.3109 0.0
-122.96 88.7323 0.0
-117.184 97.1849 0.0
-113.602 107.032 0.0
-112.776 114.311 0.0
-113.431 118.936 0.0
-114.641 122.005 0.0
-116.057 124.221 0.0
-117.605 125.884 0.0
-119.333 127.082 0.0
-121.341 127.816 0.0
-123.74 128.052 0.0
-126.586 127.748 0.0
-129.824 126.861 0.0
-133.253 125.332 0.0
-136.551 123.078 0.0
-139.358 119.998 0.0
-141.374 116.038 0.0
-142.417 111.286 0.0
-142.446 106.053 0.0
-141.22 100.865 0.0
-143.699 101.737 0.0
-142.121 96.6325 0.0
-139.89 91.9554 0.0
-137.405 88.0084 0.0
-134.591 84.9036 0.0
-130.992 83.299 0.0
-125.772 85.2841 0.0
-119.244 93.3869 0.0
-114.6 104.451 0.0
-113.333 112.725 0.0
-113.956 117.736 0.0
-115.272 120.957 0.0
-116.844 123.295 0.0
-118.579 125.107 0.0
-120.517 126.49 0.0
-122.748 127.429 0.0
-125.371 127.873 0.0
-128.437 127.766 0.0
-131.887 127.061 0.0
-135.518 125.707 0.0
-139.004 123.634 0.0
-141.97 120.751 0.0
-144.084 116.979 0.0
-145.138 112.35 0.0
-145.076 107.102 0.0
-143.699 101.737 0.0
-145.648 102.009 0.0
-144.019 96.7561 0.0
-141.746 91.8152 0.0
-139.253 87.4802 0.0
-136.545 83.8146 0.0
-133.3 81.1896 0.0
-128.621 81.2641 0.0
-121.803 87.7828 0.0
-115.782 99.9629 0.0
-113.713 109.856 0.0
-114.178 115.567 0.0
-115.55 119.034 0.0
-117.251 121.508 0.0
-119.152 123.469 0.0
-121.279 125.041 0.0
-123.715 126.205 0.0
-126.545 126.891 0.0
-129.811 127.018 0.0
-133.449 126.523 0.0
-137.255 125.349 0.0
-140.897 123.436 0.0
-143.987 120.707 0.0
-146.175 117.088 0.0
-147.235 112.592 0.0
-147.115 107.41 0.0
-145.648 102.009 0.0
-147.026 101.608 0.0
-145.383 96.3533 0.0
-143.095 91.2756 0.0
-140.59 86.6777 0.0
-137.923 82.6189 0.0
-134.932 79.2569 0.0
-130.96 77.5176 0.0
-124.693 81.0072 0.0
-117.385 93.1128 0.0
-114.005 105.451 0.0
-114.129 112.463 0.0
-115.513 116.349 0.0
-117.32 118.977 0.0
-119.368 121.057 0.0
-121.67 122.787 0.0
-124.293 124.159 0.0
-127.314 125.087 0.0
-130.759 125.466 0.0
-134.557 125.201 0.0
-138.501 124.22 0.0
-142.257 122.459 0.0
-145.427 119.856 0.0
-147.651 116.36 0.0
-148.7 111.992 0.0
-148.541 106.928 0.0
-147.026 101.608 0.0
-147.842 100.662 0.0
-146.193 95.5253 0.0
-143.896 90.4424 0.0
-141.367 85.7223 0.0
-138.682 81.4462 0.0
-135.776 77.6803 0.0
-132.298 74.7667 0.0
-127.156 74.8116 0.0
-119.55 83.8246 0.0
-114.324 98.8361 0.0
-113.808 108.307 0.0
-115.161 113.027 0.0
-117.061 115.888 0.0
-119.238 118.062 0.0
-121.69 119.894 0.0
-124.477 121.42 0.0
-127.662 122.557 0.0
-131.257 123.176 0.0
-135.182 123.152 0.0
-139.227 122.381 0.0
-143.058 120.788 0.0
-146.275 118.32 0.0
-148.517 114.951 0.0
-149.558 110.725 0.0
-149.378 105.821 0.0
-147.842 100.662 0.0
-148.121 99.4462 0.0
-146.469 94.5159 0.0
-144.156 89.5428 0.0
-141.588 84.8354 0.0
-138.841 80.5016 0.0
-135.894 76.5971 0.0
-132.568 73.2056 0.0
-128.277 71.0391 0.0
-121.723 74.2802 0.0
-114.807 88.8532 0.0
-113.124 102.492 0.0
-114.426 109.061 0.0
-116.446 112.431 0.0
-118.746 114.727 0.0
-121.323 116.613 0.0
-124.239 118.226 0.0
-127.549 119.508 0.0
-131.255 120.328 0.0
-135.268 120.534 0.0
-139.376 119.991 0.0
-143.25 118.601 0.0
-146.499 116.31 0.0
-148.762 113.111 0.0
-149.819 109.073 0.0
-149.652 104.38 0.0
-148.121 99.4462 0.0
-147.883 98.2546 0.0
-146.243 93.6011 0.0
-143.911 88.8296 0.0
-141.288 84.2479 0.0
-138.454 79.9878 0.0
-135.399 76.1229 0.0
-132.005 72.679 0.0
-127.969 69.7951 0.0
-122.535 68.7935 0.0
-115.356 76.3003 0.0
-111.78 93.3043 0.0
-113.043 103.924 0.0
-115.361 108.633 0.0
-117.851 111.26 0.0
-120.549 113.209 0.0
-123.56 114.852 0.0
-126.95 116.209 0.0
-130.719 117.17 0.0
-134.776 117.574 0.0
-138.909 117.264 0.0
-142.799 116.115 0.0
-146.069 114.062 0.0
-148.368 111.103 0.0
-149.476 107.322 0.0
-149.367 102.905 0.0
-147.883 98.2546 0.0
-147.134 97.2916 0.0
-145.541 92.97 0.0
-143.2 88.4683 0.0
-140.517 84.0938 0.0
-137.579 79.9998 0.0
-134.383 76.283 0.0
-130.836 72.9765 0.0
-126.721 70.0991 0.0
-121.642 67.8778 0.0
-115.092 68.3562 0.0
-109.381 79.4295 0.0
-110.169 95.7094 0.0
-113.379 103.955 0.0
-116.389 107.647 0.0
-119.315 109.848 0.0
-122.426 111.53 0.0
-125.864 112.911 0.0
-129.652 113.948 0.0
-133.708 114.502 0.0
-137.828 114.408 0.0
-141.708 113.524 0.0
-144.988 111.764 0.0
-147.332 109.118 0.0
-148.525 105.671 0.0
-148.519 101.6 0.0
-147.134 97.2916 0.0
-145.878 96.6125 0.0
-144.381 92.6616 0.0
-142.058 88.4744 0.0
-139.321 84.3553 0.0
-136.269 80.4776 0.0
-132.913 76.9614 0.0
-129.176 73.8624 0.0
-124.884 71.1991 0.0
-119.767 69.0097 0.0
-113.548 67.6028 0.0
-106.689 69.4026 0.0
-104.383 81.7623 0.0
-109.072 96.3228 0.0
-113.747 103.25 0.0
-117.4 106.427 0.0
-120.777 108.348 0.0
-124.293 109.775 0.0
-128.082 110.849 0.0
-132.104 111.501 0.0
-136.179 111.587 0.0
-140.023 110.962 0.0
-143.297 109.523 0.0
-145.688 107.245 0.0
-146.981 104.195 0.0
-147.112 100.532 0.0
-145.878 96.6125 0.0
-144.126 96.1423 0.0
-142.774 92.5795 0.0
-140.504 88.7296 0.0
-137.727 84.8863 0.0
-134.556 81.2411 0.0
-131.02 77.9392 0.0
-127.071 75.0652 0.0
-122.579 72.662 0.0
-117.359 70.7611 0.0
-111.286 69.4207 0.0
-104.53 68.9076 0.0
-98.6339 71.3049 0.0
-99.9291 82.7193 0.0
-107.805 95.7938 0.0
-113.925 102.158 0.0
-118.295 105.091 0.0
-122.145 106.793 0.0
-126.01 107.947 0.0
-130.007 108.672 0.0
-134.024 108.897 0.0
-137.814 108.501 0.0
-141.068 107.378 0.0
-143.494 105.485 0.0
-144.888 102.864 0.0
-145.172 99.6447 0.0
-144.126 96.1423 0.0
-141.893 95.7426 0.0
-140.72 92.5611 0.0
-138.532 89.0506 0.0
-135.728 85.4851 0.0
-132.432 82.0703 0.0
-128.698 78.9794 0.0
-124.521 76.3334 0.0
-119.839 74.2081 0.0
-114.569 72.6516 0.0
-108.709 71.6889 0.0
-102.467 71.3042 0.0
-96.3464 71.5487 0.0
-92.0056 73.7681 0.0
-95.5065 82.9001 0.0
-105.916 94.6247 0.0
-113.697 100.817 0.0
-118.929 103.642 0.0
-123.266 105.148 0.0
-127.381 106.011 0.0
-131.388 106.364 0.0
-135.135 106.162 0.0
-138.365 105.323 0.0
-140.818 103.796 0.0
-142.303 101.599 0.0
-142.736 98.8263 0.0
-141.893 95.7426 0.0
-139.176 95.2744 0.0
-138.193 92.4457 0.0
-136.099 89.2591 0.0
-133.271 85.9629 0.0
-129.842 82.7737 0.0
-125.902 79.8965 0.0
-121.512 77.4954 0.0
-116.706 75.6821 0.0
-111.517 74.5161 0.0
-106.039 73.9965 0.0
-100.479 74.0387 0.0
-95.1251 74.4743 0.0
-90.2968 75.1861 0.0
-87.1546 76.9161 0.0
-91.0553 83.2913 0.0
-103.038 93.2147 0.0
-112.737 99.2638 0.0
-119.039 102.031 0.0
-123.884 103.349 0.0
-128.13 103.92 0.0
-131.94 103.913 0.0
-135.188 103.324 0.0
-137.679 102.123 0.0
-139.251 100.315 0.0
-139.821 97.963 0.0
-139.176 95.2744 0.0
-135.907 94.6225 0.0
-135.105 92.1039 0.0
-133.102 89.2143 0.0
-130.247 86.1772 0.0
-126.693 83.2214 0.0
-122.584 80.5882 0.0
-118.077 78.4861 0.0
-113.317 77.0537 0.0
-108.428 76.3414 0.0
-103.531 76.3074 0.0
-98.7645 76.8184 0.0
-94.2624 77.6721 0.0
-90.1139 78.6553 0.0
-86.4146 79.6466 0.0
-83.9467 81.0025 0.0
-86.9881 84.8586 0.0
-98.9276 92.1063 0.0
-110.506 97.5757 0.0
-118.142 100.213 0.0
-123.57 101.339 0.0
-127.868 101.632 0.0
-131.334 101.303 0.0
-133.956 100.397 0.0
-135.651 98.9324 0.0
-136.365 96.956 0.0
-135.907 94.6225 0.0
-131.89 93.6826 0.0
-131.28 91.4296 0.0
-129.378 88.8108 0.0
-126.528 86.0368 0.0
-122.927 83.3567 0.0
-118.807 81.049 0.0
-114.426 79.3515 0.0
-110.001 78.3997 0.0
-105.668 78.209 0.0
-101.496 78.6918 0.0
-97.5299 79.6853 0.0
-93.8004 80.9849 0.0
-90.3245 82.3907 0.0
-87.1128 83.7514 0.0
-84.2502 84.9963 0.0
-82.3425 86.2488 0.0
-84.2987 88.3456 0.0
-94.1484 92.3092 0.0