# vtk DataFile Version 2.0
Particulate Flow Equations Solution
ASCII
DATASET STRUCTURED_GRID
DIMENSIONS 26 26 1
POINTS 676 double
-10 -10 0
-9.23077 -10 0
-8.46154 -10 0
-7.69231 -10 0
-6.92308 -10 0
-6.15385 -10 0
-5.38462 -10 0
-4.61538 -10 0
-3.84615 -10 0
-3.07692 -10 0
-2.30769 -10 0
-1.53846 -10 0
-0.769231 -10 0
5.55112e-016 -10 0
0.769231 -10 0
1.53846 -10 0
2.30769 -10 0
3.07692 -10 0
3.84615 -10 0
4.61538 -10 0
5.38462 -10 0
6.15385 -10 0
6.92308 -10 0
7.69231 -10 0
8.46154 -10 0
10 -10 0
-10 -9.23077 0
-9.23077 -9.23077 0
-8.46154 -9.23077 0
-7.69231 -9.23077 0
-6.92308 -9.23077 0
-6.15385 -9.23077 0
-5.38462 -9.23077 0
-4.61538 -9.23077 0
-3.84615 -9.23077 0
-3.07692 -9.23077 0
-2.30769 -9.23077 0
-1.53846 -9.23077 0
-0.769231 -9.23077 0
5.55112e-016 -9.23077 0
0.769231 -9.23077 0
1.53846 -9.23077 0
2.30769 -9.23077 0
3.07692 -9.23077 0
3.84615 -9.23077 0
4.61538 -9.23077 0
5.38462 -9.23077 0
6.15385 -9.23077 0
6.92308 -9.23077 0
7.69231 -9.23077 0
8.46154 -9.23077 0
10 -9.23077 0
-10 -8.46154 0
-9.23077 -8.46154 0
-8.46154 -8.46154 0
-7.69231 -8.46154 0
-6.92308 -8.46154 0
-6.15385 -8.46154 0
-5.38462 -8.46154 0
-4.61538 -8.46154 0
-3.84615 -8.46154 0
-3.07692 -8.46154 0
-2.30769 -8.46154 0
-1.53846 -8.46154 0
-0.769231 -8.46154 0
5.55112e-016 -8.46154 0
0.769231 -8.46154 0
1.53846 -8.46154 0
2.30769 -8.46154 0
3.07692 -8.46154 0
3.84615 -8.46154 0
4.61538 -8.46154 0
5.38462 -8.46154 0
6.15385 -8.46154 0
6.92308 -8.46154 0
7.69231 -8.46154 0
8.46154 -8.46154 0
10 -8.46154 0
-10 -7.69231 0
-9.23077 -7.69231 0
-8.46154 -7.69231 0
-7.69231 -7.69231 0
-6.92308 -7.69231 0
-6.15385 -7.69231 0
-5.38462 -7.69231 0
-4.61538 -7.69231 0
-3.84615 -7.69231 0
-3.07692 -7.69231 0
-2.30769 -7.69231 0
-1.53846 -7.69231 0
-0.769231 -7.69231 0
5.55112e-016 -7.69231 0
0.769231 -7.69231 0
1.53846 -7.69231 0
2.30769 -7.69231 0
3.07692 -7.69231 0
3.84615 -7.69231 0
4.61538 -7.69231 0
5.38462 -7.69231 0
6.15385 -7.69231 0
6.92308 -7.69231 0
7.69231 -7.69231 0
8.46154 -7.69231 0
10 -7.69231 0
-10 -6.92308 0
-9.23077 -6.92308 0
-8.46154 -6.92308 0
-7.69231 -6.92308 0
-6.92308 -6.92308 0
-6.15385 -6.92308 0
-5.38462 -6.92308 0
-4.61538 -6.92308 0
-3.84615 -6.92308 0
-3.07692 -6.92308 0
-2.30769 -6.92308 0
-1.53846 -6.92308 0
-0.769231 -6.92308 0
5.55112e-016 -6.92308 0
0.769231 -6.92308 0
1.53846 -6.92308 0
2.30769 -6.92308 0
3.07692 -6.92308 0
3.84615 -6.92308 0
4.61538 -6.92308 0
5.38462 -6.92308 0
6.15385 -6.92308 0
6.92308 -6.92308 0
7.69231 -6.92308 0
8.46154 -6.92308 0
10 -6.92308 0
-10 -6.15385 0
-9.23077 -6.15385 0
-8.46154 -6.15385 0
-7.69231 -6.15385 0
-6.92308 -6.15385 0
-6.15385 -6.15385 0
-5.38462 -6.15385 0
-4.61538 -6.15385 0
-3.84615 -6.15385 0
-3.07692 -6.15385 0
-2.30769 -6.15385 0
-1.53846 -6.15385 0
-0.769231 -6.15385 0
5.55112e-016 -6.15385 0
0.769231 -6.15385 0
1.53846 -6.15385 0
2.30769 -6.15385 0
3.07692 -6.15385 0
3.84615 -6.15385 0
4.61538 -6.15385 0
5.38462 -6.15385 0
6.15385 -6.15385 0
6.92308 -6.15385 0
7.69231 -6.15385 0
8.46154 -6.15385 0
10 -6.15385 0
-10 -5.38462 0
-9.23077 -5.38462 0
-8.46154 -5.38462 0
-7.69231 -5.38462 0
-6.92308 -5.38462 0
-6.15385 -5.38462 0
-5.38462 -5.38462 0
-4.61538 -5.38462 0
-3.84615 -5.38462 0
-3.07692 -5.38462 0
-2.30769 -5.38462 0
-1.53846 -5.38462 0
-0.769231 -5.38462 0
5.55112e-016 -5.38462 0
0.769231 -5.38462 0
1.53846 -5.38462 0
2.30769 -5.38462 0
3.07692 -5.38462 0
3.84615 -5.38462 0
4.61538 -5.38462 0
5.38462 -5.38462 0
6.15385 -5.38462 0
6.92308 -5.38462 0
7.69231 -5.38462 0
8.46154 -5.38462 0
10 -5.38462 0
-10 -4.61538 0
-9.23077 -4.61538 0
-8.46154 -4.61538 0
-7.69231 -4.61538 0
-6.92308 -4.61538 0
-6.15385 -4.61538 0
-5.38462 -4.61538 0
-4.61538 -4.61538 0
-3.84615 -4.61538 0
-3.07692 -4.61538 0
-2.30769 -4.61538 0
-1.53846 -4.61538 0
-0.769231 -4.61538 0
5.55112e-016 -4.61538 0
0.769231 -4.61538 0
1.53846 -4.61538 0
2.30769 -4.61538 0
3.07692 -4.61538 0
3.84615 -4.61538 0
4.61538 -4.61538 0
5.38462 -4.61538 0
6.15385 -4.61538 0
6.92308 -4.61538 0
7.69231 -4.61538 0
8.46154 -4.61538 0
10 -4.61538 0
-10 -3.84615 0
-9.23077 -3.84615 0
-8.46154 -3.84615 0
-7.69231 -3.84615 0
-6.92308 -3.84615 0
-6.15385 -3.84615 0
-5.38462 -3.84615 0
-4.61538 -3.84615 0
-3.84615 -3.84615 0
-3.07692 -3.84615 0
-2.30769 -3.84615 0
-1.53846 -3.84615 0
-0.769231 -3.84615 0
5.55112e-016 -3.84615 0
0.769231 -3.84615 0
1.53846 -3.84615 0
2.30769 -3.84615 0
3.07692 -3.84615 0
3.84615 -3.84615 0
4.61538 -3.84615 0
5.38462 -3.84615 0
6.15385 -3.84615 0
6.92308 -3.84615 0
7.69231 -3.84615 0
8.46154 -3.84615 0
10 -3.84615 0
-10 -3.07692 0
-9.23077 -3.07692 0
-8.46154 -3.07692 0
-7.69231 -3.07692 0
-6.92308 -3.07692 0
-6.15385 -3.07692 0
-5.38462 -3.07692 0
-4.61538 -3.07692 0
-3.84615 -3.07692 0
-3.07692 -3.07692 0
-2.30769 -3.07692 0
-1.53846 -3.07692 0
-0.769231 -3.07692 0
5.55112e-016 -3.07692 0
0.769231 -3.07692 0
1.53846 -3.07692 0
2.30769 -3.07692 0
3.07692 -3.07692 0
3.84615 -3.07692 0
4.61538 -3.07692 0
5.38462 -3.07692 0
6.15385 -3.07692 0
6.92308 -3.07692 0
7.69231 -3.07692 0
8.46154 -3.07692 0
10 -3.07692 0
-10 -2.30769 0
-9.23077 -2.30769 0
-8.46154 -2.30769 0
-7.69231 -2.30769 0
-6.92308 -2.30769 0
-6.15385 -2.30769 0
-5.38462 -2.30769 0
-4.61538 -2.30769 0
-3.84615 -2.30769 0
-3.07692 -2.30769 0
-2.30769 -2.30769 0
-1.53846 -2.30769 0
-0.769231 -2.30769 0
5.55112e-016 -2.30769 0
0.769231 -2.30769 0
1.53846 -2.30769 0
2.30769 -2.30769 0
3.07692 -2.30769 0
3.84615 -2.30769 0
4.61538 -2.30769 0
5.38462 -2.30769 0
6.15385 -2.30769 0
6.92308 -2.30769 0
7.69231 -2.30769 0
8.46154 -2.30769 0
10 -2.30769 0
-10 -1.53846 0
-9.23077 -1.53846 0
-8.46154 -1.53846 0
-7.69231 -1.53846 0
-6.92308 -1.53846 0
-6.15385 -1.53846 0
-5.38462 -1.53846 0
-4.61538 -1.53846 0
-3.84615 -1.53846 0
-3.07692 -1.53846 0
-2.30769 -1.53846 0
-1.53846 -1.53846 0
-0.769231 -1.53846 0
5.55112e-016 -1.53846 0
0.769231 -1.53846 0
1.53846 -1.53846 0
2.30769 -1.53846 0
3.07692 -1.53846 0
3.84615 -1.53846 0
4.61538 -1.53846 0
5.38462 -1.53846 0
6.15385 -1.53846 0
6.92308 -1.53846 0
7.69231 -1.53846 0
8.46154 -1.53846 0
10 -1.53846 0
-10 -0.769231 0
-9.23077 -0.769231 0
-8.46154 -0.769231 0
-7.69231 -0.769231 0
-6.92308 -0.769231 0
-6.15385 -0.769231 0
-5.38462 -0.769231 0
-4.61538 -0.769231 0
-3.84615 -0.769231 0
-3.07692 -0.769231 0
-2.30769 -0.769231 0
-1.53846 -0.769231 0
-0.769231 -0.769231 0
5.55112e-016 -0.769231 0
0.769231 -0.769231 0
1.53846 -0.769231 0
2.30769 -0.769231 0
3.07692 -0.769231 0
3.84615 -0.769231 0
4.61538 -0.769231 0
5.38462 -0.769231 0
6.15385 -0.769231 0
6.92308 -0.769231 0
7.69231 -0.769231 0
8.46154 -0.769231 0
10 -0.769231 0
-10 5.55112e-016 0
-9.23077 5.55112e-016 0
-8.46154 5.55112e-016 0
-7.69231 5.55112e-016 0
-6.92308 5.55112e-016 0
-6.15385 5.55112e-016 0
-5.38462 5.55112e-016 0
-4.61538 5.55112e-016 0
-3.84615 5.55112e-016 0
-3.07692 5.55112e-016 0
-2.30769 5.55112e-016 0
-1.53846 5.55112e-016 0
-0.769231 5.55112e-016 0
5.55112e-016 5.55112e-016 0
0.769231 5.55112e-016 0
1.53846 5.55112e-016 0
2.30769 5.55112e-016 0
3.07692 5.55112e-016 0
3.84615 5.55112e-016 0
4.61538 5.55112e-016 0
5.38462 5.55112e-016 0
6.15385 5.55112e-016 0
6.92308 5.55112e-016 0
7.69231 5.55112e-016 0
8.46154 5.55112e-016 0
10 5.55112e-016 0
-10 0.769231 0
-9.23077 0.769231 0
-8.46154 0.769231 0
-7.69231 0.769231 0
-6.92308 0.769231 0
-6.15385 0.769231 0
-5.38462 0.769231 0
-4.61538 0.769231 0
-3.84615 0.769231 0
-3.07692 0.769231 0
-2.30769 0.769231 0
-1.53846 0.769231 0
-0.769231 0.769231 0
5.55112e-016 0.769231 0
0.769231 0.769231 0
1.53846 0.769231 0
2.30769 0.769231 0
3.07692 0.769231 0
3.84615 0.769231 0
4.61538 0.769231 0
5.38462 0.769231 0
6.15385 0.769231 0
6.92308 0.769231 0
7.69231 0.769231 0
8.46154 0.769231 0
10 0.769231 0
-10 1.53846 0
-9.23077 1.53846 0
-8.46154 1.53846 0
-7.69231 1.53846 0
-6.92308 1.53846 0
-6.15385 1.53846 0
-5.38462 1.53846 0
-4.61538 1.53846 0
-3.84615 1.53846 0
-3.07692 1.53846 0
-2.30769 1.53846 0
-1.53846 1.53846 0
-0.769231 1.53846 0
5.55112e-016 1.53846 0
0.769231 1.53846 0
1.53846 1.53846 0
2.30769 1.53846 0
3.07692 1.53846 0
3.84615 1.53846 0
4.61538 1.53846 0
5.38462 1.53846 0
6.15385 1.53846 0
6.92308 1.53846 0
7.69231 1.53846 0
8.46154 1.53846 0
10 1.53846 0
-10 2.30769 0
-9.23077 2.30769 0
-8.46154 2.30769 0
-7.69231 2.30769 0
-6.92308 2.30769 0
-6.15385 2.30769 0
-5.38462 2.30769 0
-4.61538 2.30769 0
-3.84615 2.30769 0
-3.07692 2.30769 0
-2.30769 2.30769 0
-1.53846 2.30769 0
-0.769231 2.30769 0
5.55112e-016 2.30769 0
0.769231 2.30769 0
1.53846 2.30769 0
2.30769 2.30769 0
3.07692 2.30769 0
3.84615 2.30769 0
4.61538 2.30769 0
5.38462 2.30769 0
6.15385 2.30769 0
6.92308 2.30769 0
7.69231 2.30769 0
8.46154 2.30769 0
10 2.30769 0
-10 3.07692 0
-9.23077 3.07692 0
-8.46154 3.07692 0
-7.69231 3.07692 0
-6.92308 3.07692 0
-6.15385 3.07692 0
-5.38462 3.07692 0
-4.61538 3.07692 0
-3.84615 3.07692 0
-3.07692 3.07692 0
-2.30769 3.07692 0
-1.53846 3.07692 0
-0.769231 3.07692 0
5.55112e-016 3.07692 0
0.769231 3.07692 0
1.53846 3.07692 0
2.30769 3.07692 0
3.07692 3.07692 0
3.84615 3.07692 0
4.61538 3.07692 0
5.38462 3.07692 0
6.15385 3.07692 0
6.92308 3.07692 0
7.69231 3.07692 0
8.46154 3.07692 0
10 3.07692 0
-10 3.84615 0
-9.23077 3.84615 0
-8.46154 3.84615 0
-7.69231 3.84615 0
-6.92308 3.84615 0
-6.15385 3.84615 0
-5.38462 3.84615 0
-4.61538 3.84615 0
-3.84615 3.84615 0
-3.07692 3.84615 0
-2.30769 3.84615 0
-1.53846 3.84615 0
-0.769231 3.84615 0
5.55112e-016 3.84615 0
0.769231 3.84615 0
1.53846 3.84615 0
2.30769 3.84615 0
3.07692 3.84615 0
3.84615 3.84615 0
4.61538 3.84615 0
5.38462 3.84615 0
6.15385 3.84615 0
6.92308 3.84615 0
7.69231 3.84615 0
8.46154 3.84615 0
10 3.84615 0
-10 4.61538 0
-9.23077 4.61538 0
-8.46154 4.61538 0
-7.69231 4.61538 0
-6.92308 4.61538 0
-6.15385 4.61538 0
-5.38462 4.61538 0
-4.61538 4.61538 0
-3.84615 4.61538 0
-3.07692 4.61538 0
-2.30769 4.61538 0
-1.53846 4.61538 0
-0.769231 4.61538 0
5.55112e-016 4.61538 0
0.769231 4.61538 0
1.53846 4.61538 0
2.30769 4.61538 0
3.07692 4.61538 0
3.84615 4.61538 0
4.61538 4.61538 0
5.38462 4.61538 0
6.15385 4.61538 0
6.92308 4.61538 0
7.69231 4.61538 0
8.46154 4.61538 0
10 4.61538 0
-10 5.38462 0
-9.23077 5.38462 0
-8.46154 5.38462 0
-7.69231 5.38462 0
-6.92308 5.38462 0
-6.15385 5.38462 0
-5.38462 5.38462 0
-4.61538 5.38462 0
-3.84615 5.38462 0
-3.07692 5.38462 0
-2.30769 5.38462 0
-1.53846 5.38462 0
-0.769231 5.38462 0
5.55112e-016 5.38462 0
0.769231 5.38462 0
1.53846 5.38462 0
2.30769 5.38462 0
3.07692 5.38462 0
3.84615 5.38462 0
4.61538 5.38462 0
5.38462 5.38462 0
6.15385 5.38462 0
6.92308 5.38462 0
7.69231 5.38462 0
8.46154 5.38462 0
10 5.38462 0
-10 6.15385 0
-9.23077 6.15385 0
-8.46154 6.15385 0
-7.69231 6.15385 0
-6.92308 6.15385 0
-6.15385 6.15385 0
-5.38462 6.15385 0
-4.61538 6.15385 0
-3.84615 6.15385 0
-3.07692 6.15385 0
-2.30769 6.15385 0
-1.53846 6.15385 0
-0.769231 6.15385 0
5.55112e-016 6.15385 0
0.769231 6.15385 0
1.53846 6.15385 0
2.30769 6.15385 0
3.07692 6.15385 0
3.84615 6.15385 0
4.61538 6.15385 0
5.38462 6.15385 0
6.15385 6.15385 0
6.92308 6.15385 0
7.69231 6.15385 0
8.46154 6.15385 0
10 6.15385 0
-10 6.92308 0
-9.23077 6.92308 0
-8.46154 6.92308 0
-7.69231 6.92308 0
-6.92308 6.92308 0
-6.15385 6.92308 0
-5.38462 6.92308 0
-4.61538 6.92308 0
-3.84615 6.92308 0
-3.07692 6.92308 0
-2.30769 6.92308 0
-1.53846 6.92308 0
-0.769231 6.92308 0
5.55112e-016 6.92308 0
0.769231 6.92308 0
1.53846 6.92308 0
2.30769 6.92308 0
3.07692 6.92308 0
3.84615 6.92308 0
4.61538 6.92308 0
5.38462 6.92308 0
6.15385 6.92308 0
6.92308 6.92308 0
7.69231 6.92308 0
8.46154 6.92308 0
10 6.92308 0
-10 7.69231 0
-9.23077 7.69231 0
-8.46154 7.69231 0
-7.69231 7.69231 0
-6.92308 7.69231 0
-6.15385 7.69231 0
-5.38462 7.69231 0
-4.61538 7.69231 0
-3.84615 7.69231 0
-3.07692 7.69231 0
-2.30769 7.69231 0
-1.53846 7.69231 0
-0.769231 7.69231 0
5.55112e-016 7.69231 0
0.769231 7.69231 0
1.53846 7.69231 0
2.30769 7.69231 0
3.07692 7.69231 0
3.84615 7.69231 0
4.61538 7.69231 0
5.38462 7.69231 0
6.15385 7.69231 0
6.92308 7.69231 0
7.69231 7.69231 0
8.46154 7.69231 0
10 7.69231 0
-10 8.46154 0
-9.23077 8.46154 0
-8.46154 8.46154 0
-7.69231 8.46154 0
-6.92308 8.46154 0
-6.15385 8.46154 0
-5.38462 8.46154 0
-4.61538 8.46154 0
-3.84615 8.46154 0
-3.07692 8.46154 0
-2.30769 8.46154 0
-1.53846 8.46154 0
-0.769231 8.46154 0
5.55112e-016 8.46154 0
0.769231 8.46154 0
1.53846 8.46154 0
2.30769 8.46154 0
3.07692 8.46154 0
3.84615 8.46154 0
4.61538 8.46154 0
5.38462 8.46154 0
6.15385 8.46154 0
6.92308 8.46154 0
7.69231 8.46154 0
8.46154 8.46154 0
10 8.46154 0
-10 10 0
-9.23077 10 0
-8.46154 10 0
-7.69231 10 0
-6.92308 10 0
-6.15385 10 0
-5.38462 10 0
-4.61538 10 0
-3.84615 10 0
-3.07692 10 0
-2.30769 10 0
-1.53846 10 0
-0.769231 10 0
5.55112e-016 10 0
0.769231 10 0
1.53846 10 0
2.30769 10 0
3.07692 10 0
3.84615 10 0
4.61538 10 0
5.38462 10 0
6.15385 10 0
6.92308 10 0
7.69231 10 0
8.46154 10 0
10 10 0

POINT_DATA 676
SCALARS h double 1
LOOkUP_TABLE default
0.0038619
0.00379853
0.00383672
0.00395455
0.00412859
0.00433864
0.00457292
0.00483217
0.0051294
0.00548313
0.00590442
0.00638149
0.00687289
0.00731819
0.00765859
0.0078478
0.00784956
0.00763954
0.00722173
0.00664356
0.00598839
0.00534665
0.0047876
0.0043486
0.00404106
0.0038619
0.00438529
0.00454776
0.00486427
0.00530479
0.00582445
0.00637554
0.00692084
0.00744377
0.00794808
0.00844558
0.00893537
0.00938309
0.0097149
0.0098401
0.00969691
0.00928879
0.0086806
0.00796225
0.00721384
0.00649337
0.00584092
0.0052852
0.00484726
0.00454303
0.00438555
0.00438529
0.00519922
0.00573164
0.0065512
0.00760941
0.00881089
0.0100371
0.0111791
0.0121651
0.0129644
0.0135711
0.0139754
0.0141437
0.014019
0.0135498
0.0127326
0.0116378
0.0103957
0.00914864
0.00800635
0.00702831
0.00623385
0.00562311
0.00519608
0.00496425
0.00495368
0.00519922
0.0063043
0.00744136
0.00914498
0.0113496
0.0138687
0.0164312
0.0187549
0.0206185
0.0218925
0.0225251
0.0225106
0.0218699
0.0206565
0.0189711
0.016965
0.0148235
0.0127314
0.0108361
0.009224
0.00792118
0.00691416
0.00617928
0.00570872
0.00552712
0.00569602
0.0063043
0.00761804
0.00965961
0.0127936
0.0169826
0.0219169
0.0270438
0.0317076
0.0353264
0.0375085
0.0380804
0.0370627
0.0346501
0.0311971
0.0271673
0.0230319
0.0191643
0.0157896
0.0129951
0.0107711
0.00905437
0.0077671
0.00684999
0.00628949
0.00613682
0.00651632
0.00761804
0.00893488
0.0121557
0.0173491
0.0246535
0.0336813
0.0434574
0.0526216
0.059802
0.0639614
0.0645852
0.0617234
0.0559617
0.0483204
0.0400199
0.0321459
0.0253841
0.0199717
0.0158292
0.0127354
0.0104505
0.00877819
0.00759594
0.00687407
0.00669396
0.00726523
0.00893488
0.00993645
0.0144256
0.0221579
0.0337623
0.0490291
0.0665543
0.08387
0.0980783
0.106683
0.108242
0.102684
0.0912955
0.0763993
0.0606896
0.0464085
0.0347916
0.0260568
0.0197895
0.0153726
0.012249
0.0100162
0.00843775
0.00743928
0.00711735
0.0077687
0.00993645
0.0102906
0.0157804
0.0260224
0.042608
0.0661108
0.0951133
0.125864
0.152994
0.171102
0.176465
0.168205
0.148536
0.122049
0.0941431
0.0692175
0.0495488
0.0353544
0.0256474
0.0191314
0.0147093
0.011629
0.00945576
0.00801641
0.00738063
0.00789697
0.0102906
0.0098202
0.0156315
0.0275466
0.0485594
0.0809324
0.124348
0.174414
0.222736
0.259098
0.274975
0.266744
0.237094
0.193956
0.147328
0.105524
0.0728806
0.0498317
0.0345537
0.0246695
0.0182034
0.0138288
0.010777
0.00868976
0.00753779
0.00764275
0.0098202
0.00863932
0.0138542
0.0258558
0.0491041
0.088317
0.145921
0.218851
0.296667
0.363113
0.401487
0.401523
0.364045
0.30059
0.228028
0.161345
0.108879
0.0720203
0.0479703
0.0327915
0.0231605
0.0168436
0.0125345
0.00956429
0.00770764
0.00714971
0.00863932
0.00713601
0.0109527
0.021251
0.0434052
0.084537
0.151054
0.244047
0.354378
0.461281
0.537698
0.561423
0.52602
0.444211
0.341051
0.241587
0.161342
0.104393
0.0673174
0.0442341
0.0299293
0.0208266
0.0148016
0.0107075
0.00801169
0.00665107
0.00713601
0.00577894
0.00783554
0.0151901
0.0331418
0.0700509
0.135951
0.23796
0.372862
0.520838
0.64688
0.713499
0.699454
0.611772
0.481382
0.345635
0.23121
0.147972
0.0932354
0.0592736
0.0385672
0.025742
0.0175264
0.0120972
0.00850133
0.0063449
0.00577894
0.00487501
0.00533335
0.00949672
0.0216729
0.0497452
0.10524
0.200407
0.340656
0.514215
0.686451
0.80812
0.8384
0.768627
0.627347
0.461998
0.313138
0.200406
0.124605
0.0772622
0.0486359
0.031284
0.0205055
0.0136114
0.00912899
0.00629537
0.00487501
0.00445624
0.00381348
0.00541447
0.0121137
0.0300263
0.0695408
0.144636
0.267727
0.438834
0.633786
0.803031
0.890494
0.865191
0.740976
0.566217
0.393329
0.254545
0.157825
0.0963413
0.0591284
0.0368863
0.0234178
0.0150659
0.00978156
0.00643397
0.00445624
0.00436273
0.00314495
0.00319076
0.00593738
0.0153011
0.0389544
0.0890188
0.18013
0.321713
0.504915
0.692786
0.827738
0.860525
0.781672
0.626896
0.451545
0.298954
0.186961
0.113558
0.0685876
0.0418242
0.0258979
0.0162689
0.0103364
0.00663831
0.00436273
0.00440545
0.00296949
0.00232078
0.00290418
0.00665706
0.0183238
0.0464545
0.103476
0.20216
0.345917
0.51614
0.66836
0.749269
0.728731
0.620001
0.468455
0.32116
0.20508
0.125425
0.0753642
0.0453413
0.0275999
0.017054
0.0106932
0.00680161
0.00440545
0.00445674
0.00298681
0.00212656
0.00185472
0.00280115
0.00725299
0.0203224
0.0504799
0.108733
0.203701
0.33163
0.467354
0.568244
0.596293
0.543297
0.435331
0.312774
0.206529
0.128815
0.0779343
0.0467531
0.0282267
0.0172864
0.0107759
0.00685158
0.00445674
0.00445135
0.00304095
0.00216717
0.00166758
0.00161632
0.00274684
0.00744676
0.0206477
0.0497643
0.102978
0.183797
0.282913
0.374675
0.42667
0.41952
0.359892
0.274004
0.1894
0.122033
0.0752885
0.0455625
0.027556
0.0168658
0.0105301
0.00674383
0.00445135
0.00436381
0.00307361
0.00226097
0.00174487
0.00145308
0.00151251
0.0026591
0.00711393
0.0191374
0.0443987
0.0877162
0.148278
0.214759
0.266594
0.284549
0.263366
0.214517
0.156959
0.105756
0.0673813
0.0416409
0.0255081
0.0157537
0.00993493
0.00646051
0.00436381
0.00419717
0.00307251
0.00235597
0.00188462
0.0015689
0.00139091
0.00149152
0.00252483
0.00633563
0.0162028
0.0358479
0.067181
0.107033
0.145476
0.169351
0.17013
0.149402
0.11682
0.0832246
0.0554272
0.0354173
0.0222429
0.0140194
0.00902484
0.00601774
0.00419717
0.00397918
0.00304849
0.00244658
0.00204067
0.00175382
0.00154963
0.00143594
0.00154455
0.00240001
0.00537092
0.0126819
0.026369
0.0464967
0.0695251
0.0886322
0.0970897
0.0924741
0.0778736
0.0592291
0.0417018
0.0279009
0.0182049
0.0118695
0.00790321
0.00546988
0.00397918
0.00375589
0.00302669
0.00254548
0.00221359
0.00197232
0.00179124
0.00165919
0.00159556
0.00171403
0.00240309
0.00457136
0.0095228
0.0181111
0.0296288
0.0413383
0.0494458
0.0512488
0.0467371
0.0382527
0.0287701
0.0204118
0.0140401
0.00961962
0.0067297
0.00490141
0.00375589
0.00358139
0.00304138
0.00267763
0.00242396
0.00223914
0.00210138
0.00200098
0.00194021
0.00194547
0.00211318
0.00271335
0.00427969
0.00743444
0.0123473
0.0182336
0.0234401
0.0262558
0.025905
0.0229027
0.0185487
0.014121
0.0103929
0.00760714
0.0056801
0.00440678
0.00358139
0.00351209
0.00313851
0.00288775
0.00271981
0.00260711
0.00253443
0.00249546
0.00249252
0.00253881
0.00266708
0.00295457
0.00356381
0.00474071
0.00666867
0.00921727
0.0118275
0.0137168
0.0143023
0.0135167
0.0117753
0.00967462
0.00769649
0.00608827
0.00489905
0.00407054
0.00351209
0.00358959
0.00336511
0.00323712
0.00317963
0.00317257
0.00320292
0.00326529
0.00336348
0.00351091
0.0037292
0.00404618
0.004497
0.00512611
0.00596794
0.00698826
0.00802774
0.0088247
0.00913352
0.00885951
0.00810466
0.00709557
0.00606334
0.0051621
0.00445471
0.00394041
0.00358959
0.0038619
0.00379853
0.00383672
0.00395455
0.00412859
0.00433864
0.00457292
0.00483217
0.0051294
0.00548313
0.00590442
0.00638149
0.00687289
0.00731819
0.00765859
0.0078478
0.00784956
0.00763954
0.00722173
0.00664356
0.00598839
0.00534665
0.0047876
0.0043486
0.00404106
0.0038619

VECTORS u double
-111.388 91.4973 0.0
-108.672 94.1837 0.0
-106.19 97.2203 0.0
-104.006 100.343 0.0
-102.099 103.285 0.0
-100.441 105.895 0.0
-99.0478 108.106 0.0
-98.0198 109.894 0.0
-97.5477 111.239 0.0
-97.881 112.098 0.0
-99.2409 112.4 0.0
-101.705 112.059 0.0
-105.128 111.012 0.0
-109.161 109.258 0.0
-113.337 106.909 0.0
-117.189 104.183 0.0
-120.345 101.336 0.0
-122.585 98.5583 0.0
-123.83 95.9432 0.0
-124.094 93.5353 0.0
-123.448 91.4107 0.0
-121.997 89.7264 0.0
-119.881 88.7106 0.0
-117.274 88.5966 0.0
-114.377 89.5278 0.0
-111.388 91.4973 0.0
-112.081 95.1844 0.0
-109.459 98.8774 0.0
-107.267 102.648 0.0
-105.507 106.21 0.0
-104.083 109.301 0.0
-102.911 111.825 0.0
-101.976 113.785 0.0
-101.36 115.211 0.0
-101.233 116.125 0.0
-101.814 116.521 0.0
-103.287 116.367 0.0
-105.704 115.621 0.0
-108.916 114.257 0.0
-112.589 112.282 0.0
-116.297 109.753 0.0
-119.638 106.785 0.0
-122.308 103.554 0.0
-124.134 100.267 0.0
-125.056 97.1285 0.0
-125.089 94.3201 0.0
-124.295 92.019 0.0
-122.757 90.4305 0.0
-120.587 89.7963 0.0
-117.945 90.3443 0.0
-115.06 92.1791 0.0
-112.081 95.1844 0.0
-113.155 98.9159 0.0
-110.638 103.542 0.0
-108.77 107.954 0.0
-107.461 111.781 0.0
-106.522 114.853 0.0
-105.815 117.183 0.0
-105.302 118.852 0.0
-105.055 119.939 0.0
-105.228 120.49 0.0
-106.012 120.518 0.0
-107.563 120.006 0.0
-109.92 118.93 0.0
-112.95 117.276 0.0
-116.364 115.054 0.0
-119.783 112.311 0.0
-122.84 109.133 0.0
-125.249 105.655 0.0
-126.836 102.064 0.0
-127.531 98.5879 0.0
-127.346 95.4753 0.0
-126.337 92.986 0.0
-124.581 91.4017 0.0
-122.175 91.0333 0.0
-119.283 92.1647 0.0
-116.189 94.8843 0.0
-113.155 98.9159 0.0
-114.319 102.292 0.0
-111.965 107.713 0.0
-110.461 112.572 0.0
-109.596 116.496 0.0
-109.099 119.46 0.0
-108.801 121.594 0.0
-108.663 123.039 0.0
-108.751 123.896 0.0
-109.21 124.219 0.0
-110.205 124.022 0.0
-111.863 123.293 0.0
-114.203 122.009 0.0
-117.1 120.152 0.0
-120.294 117.726 0.0
-123.453 114.771 0.0
-126.249 111.368 0.0
-128.421 107.649 0.0
-129.799 103.798 0.0
-130.309 100.052 0.0
-129.951 96.6863 0.0
-128.766 94.0009 0.0
-126.803 92.3417 0.0
-124.124 92.1192 0.0
-120.891 93.7323 0.0
-117.477 97.2852 0.0
-114.319 102.292 0.0
-115.509 104.955 0.0
-113.3 111.022 0.0
-112.139 116.164 0.0
-111.67 120.102 0.0
-111.554 122.969 0.0
-111.609 124.984 0.0
-111.799 126.32 0.0
-112.195 127.08 0.0
-112.931 127.312 0.0
-114.157 127.027 0.0
-115.974 126.212 0.0
-118.377 124.841 0.0
-121.23 122.885 0.0
-124.283 120.333 0.0
-127.231 117.211 0.0
-129.782 113.596 0.0
-131.705 109.63 0.0
-132.853 105.514 0.0
-133.164 101.501 0.0
-132.64 97.8751 0.0
-131.307 94.9491 0.0
-129.175 93.1079 0.0
-126.242 92.869 0.0
-122.64 94.8 0.0
-118.841 99.0723 0.0
-115.509 104.955 0.0
-116.702 106.642 0.0
-114.558 113.265 0.0
-113.672 118.624 0.0
-113.537 122.581 0.0
-113.748 125.417 0.0
-114.111 127.418 0.0
-114.594 128.764 0.0
-115.271 129.549 0.0
-116.271 129.807 0.0
-117.733 129.543 0.0
-119.742 128.744 0.0
-122.275 127.381 0.0
-125.178 125.421 0.0
-128.193 122.833 0.0
-131.017 119.616 0.0
-133.374 115.835 0.0
-135.062 111.638 0.0
-135.967 107.253 0.0
-136.059 102.956 0.0
-135.361 99.0401 0.0
-133.899 95.8098 0.0
-131.646 93.6573 0.0
-128.515 93.1892 0.0
-124.553 95.1886 0.0
-120.303 99.9934 0.0
-116.702 106.642 0.0
-117.917 107.173 0.0
-115.695 114.356 0.0
-114.989 119.962 0.0
-115.126 123.995 0.0
-115.624 126.881 0.0
-116.268 128.96 0.0
-117.023 130.415 0.0
-117.96 131.322 0.0
-119.204 131.701 0.0
-120.889 131.544 0.0
-123.092 130.838 0.0
-125.783 129.556 0.0
-128.796 127.663 0.0
-131.86 125.116 0.0
-134.655 121.888 0.0
-136.9 118.014 0.0
-138.403 113.633 0.0
-139.082 108.993 0.0
-138.951 104.404 0.0
-138.075 100.171 0.0
-136.504 96.5796 0.0
-134.19 93.9931 0.0
-130.958 93.0566 0.0
-126.702 94.7848 0.0
-121.941 99.8478 0.0
-117.917 107.173 0.0
-119.218 106.392 0.0
-116.711 114.25 0.0
-116.062 120.214 0.0
-116.408 124.402 0.0
-117.161 127.402 0.0
-118.07 129.621 0.0
-119.087 131.251 0.0
-120.272 132.353 0.0
-121.745 132.925 0.0
-123.632 132.947 0.0
-126.011 132.394 0.0
-128.851 131.245 0.0
-131.987 129.468 0.0
-135.138 127.018 0.0
-137.972 123.851 0.0
-140.185 119.966 0.0
-141.576 115.475 0.0
-142.077 110.627 0.0
-141.745 105.761 0.0
-140.702 101.205 0.0
-139.041 97.2273 0.0
-136.732 94.1299 0.0
-133.537 92.5136 0.0
-129.145 93.5643 0.0
-123.87 98.482 0.0
-119.218 106.392 0.0
-120.73 104.119 0.0
-117.647 112.866 0.0
-116.889 119.396 0.0
-117.371 123.84 0.0
-118.346 126.998 0.0
-119.507 129.385 0.0
-120.782 131.218 0.0
-122.213 132.552 0.0
-123.907 133.366 0.0
-125.981 133.618 0.0
-128.51 133.27 0.0
-131.471 132.295 0.0
-134.707 130.667 0.0
-137.94 128.346 0.0
-140.832 125.284 0.0
-143.061 121.458 0.0
-144.405 116.94 0.0
-144.793 111.959 0.0
-144.308 106.867 0.0
-143.123 102.016 0.0
-141.389 97.6689 0.0
-139.126 94.0591 0.0
-136.103 91.6564 0.0
-131.832 91.6408 0.0
-126.202 95.8261 0.0
-120.73 104.119 0.0
-122.626 100.159 0.0
-118.602 110.044 0.0
-117.497 117.486 0.0
-118.013 122.341 0.0
-119.167 125.698 0.0
-120.562 128.25 0.0
-122.087 130.278 0.0
-123.765 131.845 0.0
-125.679 132.916 0.0
-127.933 133.428 0.0
-130.596 133.322 0.0
-133.65 132.555 0.0
-136.951 131.1 0.0
-140.233 128.927 0.0
-143.163 125.993 0.0
-145.416 122.267 0.0
-146.752 117.794 0.0
-147.086 112.767 0.0
-146.504 107.527 0.0
-145.212 102.441 0.0
-143.413 97.7828 0.0
-141.196 93.733 0.0
-138.407 90.5924 0.0
-134.527 89.3002 0.0
-128.942 92.0204 0.0
-122.626 100.159 0.0
-125.05 94.4585 0.0
-119.747 105.483 0.0
-117.944 114.39 0.0
-118.35 119.939 0.0
-119.622 123.566 0.0
-121.216 126.27 0.0
-122.975 128.456 0.0
-124.892 130.222 0.0
-127.028 131.534 0.0
-129.462 132.309 0.0
-132.254 132.461 0.0
-135.384 131.928 0.0
-138.722 130.671 0.0
-142.02 128.661 0.0
-144.959 125.87 0.0
-147.22 122.271 0.0
-148.56 117.895 0.0
-148.877 112.901 0.0
-148.247 107.601 0.0
-146.882 102.364 0.0
-145.021 97.4762 0.0
-142.81 93.0991 0.0
-140.208 89.3947 0.0
-136.825 86.9298 0.0
-131.81 87.608 0.0
-125.05 94.4585 0.0
-127.854 87.5865 0.0
-121.309 98.7888 0.0
-118.333 109.853 0.0
-118.413 116.641 0.0
-119.719 120.708 0.0
-121.465 123.572 0.0
-123.423 125.869 0.0
-125.56 127.778 0.0
-127.908 129.284 0.0
-130.525 130.295 0.0
-133.448 130.703 0.0
-136.654 130.418 0.0
-140.018 129.382 0.0
-143.312 127.56 0.0
-146.238 124.931 0.0
-148.492 121.483 0.0
-149.836 117.246 0.0
-150.158 112.354 0.0
-149.514 107.082 0.0
-148.106 101.786 0.0
-146.181 96.7608 0.0
-143.929 92.1742 0.0
-141.395 88.1157 0.0
-138.381 84.8364 0.0
-134.198 83.5071 0.0
-127.854 87.5865 0.0
-130.308 81.174 0.0
-123.39 89.9722 0.0
-118.813 103.31 0.0
-118.238 112.318 0.0
-119.479 117.23 0.0
-121.322 120.34 0.0
-123.435 122.721 0.0
-125.753 124.71 0.0
-128.291 126.344 0.0
-131.081 127.541 0.0
-134.139 128.18 0.0
-137.427 128.144 0.0
-140.824 127.349 0.0
-144.114 125.745 0.0
-147.021 123.313 0.0
-149.263 120.051 0.0
-150.613 115.996 0.0
-150.955 111.268 0.0
-150.322 106.109 0.0
-148.894 100.846 0.0
-146.911 95.7789 0.0
-144.581 91.091 0.0
-142.004 86.8554 0.0
-139.121 83.1562 0.0
-135.56 80.4849 0.0
-130.308 81.174 0.0
-131.509 76.9938 0.0
-125.465 80.8676 0.0
-119.52 93.9959 0.0
-117.834 106.451 0.0
-118.897 113.116 0.0
-120.805 116.753 0.0
-123.031 119.255 0.0
-125.485 121.281 0.0
-128.174 122.976 0.0
-131.112 124.296 0.0
-134.297 125.12 0.0
-137.675 125.317 0.0
-141.116 124.775 0.0
-144.416 123.423 0.0
-147.315 121.23 0.0
-149.553 118.202 0.0
-150.918 114.381 0.0
-151.294 109.88 0.0
-150.695 104.913 0.0
-149.27 99.7749 0.0
-147.242 94.7614 0.0
-144.82 90.0709 0.0
-142.131 85.7895 0.0
-139.189 81.9503 0.0
-135.842 78.6964 0.0
-131.509 76.9938 0.0
-131.323 75.2748 0.0
-126.344 75.004 0.0
-120.26 82.7553 0.0
-117.084 97.8305 0.0
-117.855 107.934 0.0
-119.884 112.846 0.0
-122.231 115.674 0.0
-124.791 117.752 0.0
-127.586 119.462 0.0
-130.635 120.84 0.0
-133.924 121.794 0.0
-137.385 122.189 0.0
-140.881 121.897 0.0
-144.207 120.822 0.0
-147.118 118.915 0.0
-149.369 116.176 0.0
-150.764 112.648 0.0
-151.19 108.439 0.0
-150.648 103.739 0.0
-149.251 98.8144 0.0
-147.199 93.9444 0.0
-144.691 89.34 0.0
-141.864 85.1092 0.0
-138.766 81.2892 0.0
-135.341 77.9177 0.0
-131.323 75.2748 0.0
-130.234 75.1403 0.0
-125.644 73.2903 0.0
-120.156 74.7486 0.0
-115.683 85.8165 0.0
-115.893 100.335 0.0
-118.333 108.223 0.0
-120.982 112.002 0.0
-123.689 114.298 0.0
-126.572 116.033 0.0
-129.695 117.427 0.0
-133.055 118.453 0.0
-136.58 119 0.0
-140.128 118.935 0.0
-143.491 118.144 0.0
-146.43 116.557 0.0
-148.713 114.157 0.0
-150.156 110.981 0.0
-150.652 107.128 0.0