# vtk DataFile Version 2.0
Particulate Flow Equations Solution
ASCII
DATASET STRUCTURED_GRID
DIMENSIONS 26 26 1
POINTS 676 double
-10 -10 0
-9.23077 -10 0
-8.46154 -10 0
-7.69231 -10 0
-6.92308 -10 0
-6.15385 -10 0
-5.38462 -10 0
-4.61538 -10 0
-3.84615 -10 0
-3.07692 -10 0
-2.30769 -10 0
-1.53846 -10 0
-0.769231 -10 0
5.55112e-016 -10 0
0.769231 -10 0
1.53846 -10 0
2.30769 -10 0
3.07692 -10 0
3.84615 -10 0
4.61538 -10 0
5.38462 -10 0
6.15385 -10 0
6.92308 -10 0
7.69231 -10 0
8.46154 -10 0
10 -10 0
-10 -9.23077 0
-9.23077 -9.23077 0
-8.46154 -9.23077 0
-7.69231 -9.23077 0
-6.92308 -9.23077 0
-6.15385 -9.23077 0
-5.38462 -9.23077 0
-4.61538 -9.23077 0
-3.84615 -9.23077 0
-3.07692 -9.23077 0
-2.30769 -9.23077 0
-1.53846 -9.23077 0
-0.769231 -9.23077 0
5.55112e-016 -9.23077 0
0.769231 -9.23077 0
1.53846 -9.23077 0
2.30769 -9.23077 0
3.07692 -9.23077 0
3.84615 -9.23077 0
4.61538 -9.23077 0
5.38462 -9.23077 0
6.15385 -9.23077 0
6.92308 -9.23077 0
7.69231 -9.23077 0
8.46154 -9.23077 0
10 -9.23077 0
-10 -8.46154 0
-9.23077 -8.46154 0
-8.46154 -8.46154 0
-7.69231 -8.46154 0
-6.92308 -8.46154 0
-6.15385 -8.46154 0
-5.38462 -8.46154 0
-4.61538 -8.46154 0
-3.84615 -8.46154 0
-3.07692 -8.46154 0
-2.30769 -8.46154 0
-1.53846 -8.46154 0
-0.769231 -8.46154 0
5.55112e-016 -8.46154 0
0.769231 -8.46154 0
1.53846 -8.46154 0
2.30769 -8.46154 0
3.07692 -8.46154 0
3.84615 -8.46154 0
4.61538 -8.46154 0
5.38462 -8.46154 0
6.15385 -8.46154 0
6.92308 -8.46154 0
7.69231 -8.46154 0
8.46154 -8.46154 0
10 -8.46154 0
-10 -7.69231 0
-9.23077 -7.69231 0
-8.46154 -7.69231 0
-7.69231 -7.69231 0
-6.92308 -7.69231 0
-6.15385 -7.69231 0
-5.38462 -7.69231 0
-4.61538 -7.69231 0
-3.84615 -7.69231 0
-3.07692 -7.69231 0
-2.30769 -7.69231 0
-1.53846 -7.69231 0
-0.769231 -7.69231 0
5.55112e-016 -7.69231 0
0.769231 -7.69231 0
1.53846 -7.69231 0
2.30769 -7.69231 0
3.07692 -7.69231 0
3.84615 -7.69231 0
4.61538 -7.69231 0
5.38462 -7.69231 0
6.15385 -7.69231 0
6.92308 -7.69231 0
7.69231 -7.69231 0
8.46154 -7.69231 0
10 -7.69231 0
-10 -6.92308 0
-9.23077 -6.92308 0
-8.46154 -6.92308 0
-7.69231 -6.92308 0
-6.92308 -6.92308 0
-6.15385 -6.92308 0
-5.38462 -6.92308 0
-4.61538 -6.92308 0
-3.84615 -6.92308 0
-3.07692 -6.92308 0
-2.30769 -6.92308 0
-1.53846 -6.92308 0
-0.769231 -6.92308 0
5.55112e-016 -6.92308 0
0.769231 -6.92308 0
1.53846 -6.92308 0
2.30769 -6.92308 0
3.07692 -6.92308 0
3.84615 -6.92308 0
4.61538 -6.92308 0
5.38462 -6.92308 0
6.15385 -6.92308 0
6.92308 -6.92308 0
7.69231 -6.92308 0
8.46154 -6.92308 0
10 -6.92308 0
-10 -6.15385 0
-9.23077 -6.15385 0
-8.46154 -6.15385 0
-7.69231 -6.15385 0
-6.92308 -6.15385 0
-6.15385 -6.15385 0
-5.38462 -6.15385 0
-4.61538 -6.15385 0
-3.84615 -6.15385 0
-3.07692 -6.15385 0
-2.30769 -6.15385 0
-1.53846 -6.15385 0
-0.769231 -6.15385 0
5.55112e-016 -6.15385 0
0.769231 -6.15385 0
1.53846 -6.15385 0
2.30769 -6.15385 0
3.07692 -6.15385 0
3.84615 -6.15385 0
4.61538 -6.15385 0
5.38462 -6.15385 0
6.15385 -6.15385 0
6.92308 -6.15385 0
7.69231 -6.15385 0
8.46154 -6.15385 0
10 -6.15385 0
-10 -5.38462 0
-9.23077 -5.38462 0
-8.46154 -5.38462 0
-7.69231 -5.38462 0
-6.92308 -5.38462 0
-6.15385 -5.38462 0
-5.38462 -5.38462 0
-4.61538 -5.38462 0
-3.84615 -5.38462 0
-3.07692 -5.38462 0
-2.30769 -5.38462 0
-1.53846 -5.38462 0
-0.769231 -5.38462 0
5.55112e-016 -5.38462 0
0.769231 -5.38462 0
1.53846 -5.38462 0
2.30769 -5.38462 0
3.07692 -5.38462 0
3.84615 -5.38462 0
4.61538 -5.38462 0
5.38462 -5.38462 0
6.15385 -5.38462 0
6.92308 -5.38462 0
7.69231 -5.38462 0
8.46154 -5.38462 0
10 -5.38462 0
-10 -4.61538 0
-9.23077 -4.61538 0
-8.46154 -4.61538 0
-7.69231 -4.61538 0
-6.92308 -4.61538 0
-6.15385 -4.61538 0
-5.38462 -4.61538 0
-4.61538 -4.61538 0
-3.84615 -4.61538 0
-3.07692 -4.61538 0
-2.30769 -4.61538 0
-1.53846 -4.61538 0
-0.769231 -4.61538 0
5.55112e-016 -4.61538 0
0.769231 -4.61538 0
1.53846 -4.61538 0
2.30769 -4.61538 0
3.07692 -4.61538 0
3.84615 -4.61538 0
4.61538 -4.61538 0
5.38462 -4.61538 0
6.15385 -4.61538 0
6.92308 -4.61538 0
7.69231 -4.61538 0
8.46154 -4.61538 0
10 -4.61538 0
-10 -3.84615 0
-9.23077 -3.84615 0
-8.46154 -3.84615 0
-7.69231 -3.84615 0
-6.92308 -3.84615 0
-6.15385 -3.84615 0
-5.38462 -3.84615 0
-4.61538 -3.84615 0
-3.84615 -3.84615 0
-3.07692 -3.84615 0
-2.30769 -3.84615 0
-1.53846 -3.84615 0
-0.769231 -3.84615 0
5.55112e-016 -3.84615 0
0.769231 -3.84615 0
1.53846 -3.84615 0
2.30769 -3.84615 0
3.07692 -3.84615 0
3.84615 -3.84615 0
4.61538 -3.84615 0
5.38462 -3.84615 0
6.15385 -3.84615 0
6.92308 -3.84615 0
7.69231 -3.84615 0
8.46154 -3.84615 0
10 -3.84615 0
-10 -3.07692 0
-9.23077 -3.07692 0
-8.46154 -3.07692 0
-7.69231 -3.07692 0
-6.92308 -3.07692 0
-6.15385 -3.07692 0
-5.38462 -3.07692 0
-4.61538 -3.07692 0
-3.84615 -3.07692 0
-3.07692 -3.07692 0
-2.30769 -3.07692 0
-1.53846 -3.07692 0
-0.769231 -3.07692 0
5.55112e-016 -3.07692 0
0.769231 -3.07692 0
1.53846 -3.07692 0
2.30769 -3.07692 0
3.07692 -3.07692 0
3.84615 -3.07692 0
4.61538 -3.07692 0
5.38462 -3.07692 0
6.15385 -3.07692 0
6.92308 -3.07692 0
7.69231 -3.07692 0
8.46154 -3.07692 0
10 -3.07692 0
-10 -2.30769 0
-9.23077 -2.30769 0
-8.46154 -2.30769 0
-7.69231 -2.30769 0
-6.92308 -2.30769 0
-6.15385 -2.30769 0
-5.38462 -2.30769 0
-4.61538 -2.30769 0
-3.84615 -2.30769 0
-3.07692 -2.30769 0
-2.30769 -2.30769 0
-1.53846 -2.30769 0
-0.769231 -2.30769 0
5.55112e-016 -2.30769 0
0.769231 -2.30769 0
1.53846 -2.30769 0
2.30769 -2.30769 0
3.07692 -2.30769 0
3.84615 -2.30769 0
4.61538 -2.30769 0
5.38462 -2.30769 0
6.15385 -2.30769 0
6.92308 -2.30769 0
7.69231 -2.30769 0
8.46154 -2.30769 0
10 -2.30769 0
-10 -1.53846 0
-9.23077 -1.53846 0
-8.46154 -1.53846 0
-7.69231 -1.53846 0
-6.92308 -1.53846 0
-6.15385 -1.53846 0
-5.38462 -1.53846 0
-4.61538 -1.53846 0
-3.84615 -1.53846 0
-3.07692 -1.53846 0
-2.30769 -1.53846 0
-1.53846 -1.53846 0
-0.769231 -1.53846 0
5.55112e-016 -1.53846 0
0.769231 -1.53846 0
1.53846 -1.53846 0
2.30769 -1.53846 0
3.07692 -1.53846 0
3.84615 -1.53846 0
4.61538 -1.53846 0
5.38462 -1.53846 0
6.15385 -1.53846 0
6.92308 -1.53846 0
7.69231 -1.53846 0
8.46154 -1.53846 0
10 -1.53846 0
-10 -0.769231 0
-9.23077 -0.769231 0
-8.46154 -0.769231 0
-7.69231 -0.769231 0
-6.92308 -0.769231 0
-6.15385 -0.769231 0
-5.38462 -0.769231 0
-4.61538 -0.769231 0
-3.84615 -0.769231 0
-3.07692 -0.769231 0
-2.30769 -0.769231 0
-1.53846 -0.769231 0
-0.769231 -0.769231 0
5.55112e-016 -0.769231 0
0.769231 -0.769231 0
1.53846 -0.769231 0
2.30769 -0.769231 0
3.07692 -0.769231 0
3.84615 -0.769231 0
4.61538 -0.769231 0
5.38462 -0.769231 0
6.15385 -0.769231 0
6.92308 -0.769231 0
7.69231 -0.769231 0
8.46154 -0.769231 0
10 -0.769231 0
-10 5.55112e-016 0
-9.23077 5.55112e-016 0
-8.46154 5.55112e-016 0
-7.69231 5.55112e-016 0
-6.92308 5.55112e-016 0
-6.15385 5.55112e-016 0
-5.38462 5.55112e-016 0
-4.61538 5.55112e-016 0
-3.84615 5.55112e-016 0
-3.07692 5.55112e-016 0
-2.30769 5.55112e-016 0
-1.53846 5.55112e-016 0
-0.769231 5.55112e-016 0
5.55112e-016 5.55112e-016 0
0.769231 5.55112e-016 0
1.53846 5.55112e-016 0
2.30769 5.55112e-016 0
3.07692 5.55112e-016 0
3.84615 5.55112e-016 0
4.61538 5.55112e-016 0
5.38462 5.55112e-016 0
6.15385 5.55112e-016 0
6.92308 5.55112e-016 0
7.69231 5.55112e-016 0
8.46154 5.55112e-016 0
10 5.55112e-016 0
-10 0.769231 0
-9.23077 0.769231 0
-8.46154 0.769231 0
-7.69231 0.769231 0
-6.92308 0.769231 0
-6.15385 0.769231 0
-5.38462 0.769231 0
-4.61538 0.769231 0
-3.84615 0.769231 0
-3.07692 0.769231 0
-2.30769 0.769231 0
-1.53846 0.769231 0
-0.769231 0.769231 0
5.55112e-016 0.769231 0
0.769231 0.769231 0
1.53846 0.769231 0
2.30769 0.769231 0
3.07692 0.769231 0
3.84615 0.769231 0
4.61538 0.769231 0
5.38462 0.769231 0
6.15385 0.769231 0
6.92308 0.769231 0
7.69231 0.769231 0
8.46154 0.769231 0
10 0.769231 0
-10 1.53846 0
-9.23077 1.53846 0
-8.46154 1.53846 0
-7.69231 1.53846 0
-6.92308 1.53846 0
-6.15385 1.53846 0
-5.38462 1.53846 0
-4.61538 1.53846 0
-3.84615 1.53846 0
-3.07692 1.53846 0
-2.30769 1.53846 0
-1.53846 1.53846 0
-0.769231 1.53846 0
5.55112e-016 1.53846 0
0.769231 1.53846 0
1.53846 1.53846 0
2.30769 1.53846 0
3.07692 1.53846 0
3.84615 1.53846 0
4.61538 1.53846 0
5.38462 1.53846 0
6.15385 1.53846 0
6.92308 1.53846 0
7.69231 1.53846 0
8.46154 1.53846 0
10 1.53846 0
-10 2.30769 0
-9.23077 2.30769 0
-8.46154 2.30769 0
-7.69231 2.30769 0
-6.92308 2.30769 0
-6.15385 2.30769 0
-5.38462 2.30769 0
-4.61538 2.30769 0
-3.84615 2.30769 0
-3.07692 2.30769 0
-2.30769 2.30769 0
-1.53846 2.30769 0
-0.769231 2.30769 0
5.55112e-016 2.30769 0
0.769231 2.30769 0
1.53846 2.30769 0
2.30769 2.30769 0
3.07692 2.30769 0
3.84615 2.30769 0
4.61538 2.30769 0
5.38462 2.30769 0
6.15385 2.30769 0
6.92308 2.30769 0
7.69231 2.30769 0
8.46154 2.30769 0
10 2.30769 0
-10 3.07692 0
-9.23077 3.07692 0
-8.46154 3.07692 0
-7.69231 3.07692 0
-6.92308 3.07692 0
-6.15385 3.07692 0
-5.38462 3.07692 0
-4.61538 3.07692 0
-3.84615 3.07692 0
-3.07692 3.07692 0
-2.30769 3.07692 0
-1.53846 3.07692 0
-0.769231 3.07692 0
5.55112e-016 3.07692 0
0.769231 3.07692 0
1.53846 3.07692 0
2.30769 3.07692 0
3.07692 3.07692 0
3.84615 3.07692 0
4.61538 3.07692 0
5.38462 3.07692 0
6.15385 3.07692 0
6.92308 3.07692 0
7.69231 3.07692 0
8.46154 3.07692 0
10 3.07692 0
-10 3.84615 0
-9.23077 3.84615 0
-8.46154 3.84615 0
-7.69231 3.84615 0
-6.92308 3.84615 0
-6.15385 3.84615 0
-5.38462 3.84615 0
-4.61538 3.84615 0
-3.84615 3.84615 0
-3.07692 3.84615 0
-2.30769 3.84615 0
-1.53846 3.84615 0
-0.769231 3.84615 0
5.55112e-016 3.84615 0
0.769231 3.84615 0
1.53846 3.84615 0
2.30769 3.84615 0
3.07692 3.84615 0
3.84615 3.84615 0
4.61538 3.84615 0
5.38462 3.84615 0
6.15385 3.84615 0
6.92308 3.84615 0
7.69231 3.84615 0
8.46154 3.84615 0
10 3.84615 0
-10 4.61538 0
-9.23077 4.61538 0
-8.46154 4.61538 0
-7.69231 4.61538 0
-6.92308 4.61538 0
-6.15385 4.61538 0
-5.38462 4.61538 0
-4.61538 4.61538 0
-3.84615 4.61538 0
-3.07692 4.61538 0
-2.30769 4.61538 0
-1.53846 4.61538 0
-0.769231 4.61538 0
5.55112e-016 4.61538 0
0.769231 4.61538 0
1.53846 4.61538 0
2.30769 4.61538 0
3.07692 4.61538 0
3.84615 4.61538 0
4.61538 4.61538 0
5.38462 4.61538 0
6.15385 4.61538 0
6.92308 4.61538 0
7.69231 4.61538 0
8.46154 4.61538 0
10 4.61538 0
-10 5.38462 0
-9.23077 5.38462 0
-8.46154 5.38462 0
-7.69231 5.38462 0
-6.92308 5.38462 0
-6.15385 5.38462 0
-5.38462 5.38462 0
-4.61538 5.38462 0
-3.84615 5.38462 0
-3.07692 5.38462 0
-2.30769 5.38462 0
-1.53846 5.38462 0
-0.769231 5.38462 0
5.55112e-016 5.38462 0
0.769231 5.38462 0
1.53846 5.38462 0
2.30769 5.38462 0
3.07692 5.38462 0
3.84615 5.38462 0
4.61538 5.38462 0
5.38462 5.38462 0
6.15385 5.38462 0
6.92308 5.38462 0
7.69231 5.38462 0
8.46154 5.38462 0
10 5.38462 0
-10 6.15385 0
-9.23077 6.15385 0
-8.46154 6.15385 0
-7.69231 6.15385 0
-6.92308 6.15385 0
-6.15385 6.15385 0
-5.38462 6.15385 0
-4.61538 6.15385 0
-3.84615 6.15385 0
-3.07692 6.15385 0
-2.30769 6.15385 0
-1.53846 6.15385 0
-0.769231 6.15385 0
5.55112e-016 6.15385 0
0.769231 6.15385 0
1.53846 6.15385 0
2.30769 6.15385 0
3.07692 6.15385 0
3.84615 6.15385 0
4.61538 6.15385 0
5.38462 6.15385 0
6.15385 6.15385 0
6.92308 6.15385 0
7.69231 6.15385 0
8.46154 6.15385 0
10 6.15385 0
-10 6.92308 0
-9.23077 6.92308 0
-8.46154 6.92308 0
-7.69231 6.92308 0
-6.92308 6.92308 0
-6.15385 6.92308 0
-5.38462 6.92308 0
-4.61538 6.92308 0
-3.84615 6.92308 0
-3.07692 6.92308 0
-2.30769 6.92308 0
-1.53846 6.92308 0
-0.769231 6.92308 0
5.55112e-016 6.92308 0
0.769231 6.92308 0
1.53846 6.92308 0
2.30769 6.92308 0
3.07692 6.92308 0
3.84615 6.92308 0
4.61538 6.92308 0
5.38462 6.92308 0
6.15385 6.92308 0
6.92308 6.92308 0
7.69231 6.92308 0
8.46154 6.92308 0
10 6.92308 0
-10 7.69231 0
-9.23077 7.69231 0
-8.46154 7.69231 0
-7.69231 7.69231 0
-6.92308 7.69231 0
-6.15385 7.69231 0
-5.38462 7.69231 0
-4.61538 7.69231 0
-3.84615 7.69231 0
-3.07692 7.69231 0
-2.30769 7.69231 0
-1.53846 7.69231 0
-0.769231 7.69231 0
5.55112e-016 7.69231 0
0.769231 7.69231 0
1.53846 7.69231 0
2.30769 7.69231 0
3.07692 7.69231 0
3.84615 7.69231 0
4.61538 7.69231 0
5.38462 7.69231 0
6.15385 7.69231 0
6.92308 7.69231 0
7.69231 7.69231 0
8.46154 7.69231 0
10 7.69231 0
-10 8.46154 0
-9.23077 8.46154 0
-8.46154 8.46154 0
-7.69231 8.46154 0
-6.92308 8.46154 0
-6.15385 8.46154 0
-5.38462 8.46154 0
-4.61538 8.46154 0
-3.84615 8.46154 0
-3.07692 8.46154 0
-2.30769 8.46154 0
-1.53846 8.46154 0
-0.769231 8.46154 0
5.55112e-016 8.46154 0
0.769231 8.46154 0
1.53846 8.46154 0
2.30769 8.46154 0
3.07692 8.46154 0
3.84615 8.46154 0
4.61538 8.46154 0
5.38462 8.46154 0
6.15385 8.46154 0
6.92308 8.46154 0
7.69231 8.46154 0
8.46154 8.46154 0
10 8.46154 0
-10 10 0
-9.23077 10 0
-8.46154 10 0
-7.69231 10 0
-6.92308 10 0
-6.15385 10 0
-5.38462 10 0
-4.61538 10 0
-3.84615 10 0
-3.07692 10 0
-2.30769 10 0
-1.53846 10 0
-0.769231 10 0
5.55112e-016 10 0
0.769231 10 0
1.53846 10 0
2.30769 10 0
3.07692 10 0
3.84615 10 0
4.61538 10 0
5.38462 10 0
6.15385 10 0
6.92308 10 0
7.69231 10 0
8.46154 10 0
10 10 0

POINT_DATA 676
SCALARS h double 1
LOOkUP_TABLE default
0.0721919
0.0898253
0.103136
0.109428
0.107743
0.0991376
0.0860221
0.0711409
0.0567383
0.044188
0.0340357
0.0262503
0.020501
0.0163647
0.0134469
0.011436
0.0101234
0.00941652
0.00937028
0.0102503
0.0126149
0.0173397
0.0254493
0.0376643
0.0537739
0.0721919
0.0473691
0.0603413
0.0718328
0.0795799
0.0820452
0.0790646
0.0717528
0.0619297
0.0514308
0.0416319
0.0332942
0.0266528
0.0216048
0.0178899
0.0152165
0.0133301
0.0120421
0.0112412
0.0109046
0.0111264
0.0121638
0.0144812
0.0187253
0.025552
0.0352524
0.0473691
0.033118
0.0415458
0.0499239
0.0567555
0.0606422
0.0608962
0.0577395
0.0521194
0.0452837
0.0383623
0.032126
0.0269463
0.0228842
0.01982
0.0175645
0.0159308
0.0147701
0.0139844
0.0135315
0.0134342
0.0138014
0.0148576
0.0169552
0.0205226
0.0259067
0.033118
0.0264075
0.0312092
0.0364411
0.0412958
0.0448169
0.0463047
0.0455618
0.0429278
0.039096
0.0348371
0.0307719
0.027269
0.0244568
0.0222987
0.0206777
0.0194635
0.0185492
0.0178655
0.0173815
0.0171033
0.0170791
0.0174134
0.0182817
0.0199239
0.0225855
0.0264075
0.0247003
0.0268649
0.0294742
0.0321939
0.0344995
0.0359096
0.0361566
0.0352819
0.0335964
0.0315389
0.0295146
0.0277884
0.0264582
0.0254904
0.0247821
0.0242212
0.023724
0.023249
0.022792
0.0223752
0.0220385
0.0218418
0.0218746
0.0222631
0.0231588
0.0247003
0.026372
0.0265778
0.0271149
0.0279223
0.0287772
0.0294382
0.0297316
0.0296275
0.0292534
0.0288321
0.028583
0.0286352
0.0289895
0.0295357
0.030106
0.0305389
0.0307264
0.0306317
0.0302791
0.029728
0.0290488
0.0283103
0.0275822
0.026946
0.0265026
0.026372
0.030634
0.0291847
0.0279794
0.0271085
0.0265256
0.0261643
0.0259724
0.0259588
0.026213
0.0268756
0.0280703
0.0298288
0.0320442
0.0344759
0.0368075
0.0387326
0.0400338
0.0406219
0.0405274
0.0398583
0.0387498
0.0373298
0.0357069
0.0339782
0.0322456
0.030634
0.037314
0.0341853
0.0312947
0.0288244
0.0268196
0.0253158
0.0243493
0.0239899
0.0243602
0.0256178
0.0278961
0.0312191
0.0354258
0.0401448
0.0448485
0.0489739
0.0520639
0.053866
0.0543521
0.0536661
0.0520391
0.0497141
0.0469056
0.0437934
0.0405389
0.037314
0.0466878
0.0415739
0.0367947
0.0326016
0.0290799
0.0263089
0.0243652
0.023357
0.0234507
0.0248683
0.0278356
0.0324784
0.0386939
0.0460556
0.0538229
0.0610798
0.0669619
0.0708689
0.0725713
0.0721824
0.0700385
0.0665607
0.0621572
0.0571804
0.0519307
0.0466878
0.0593842
0.0517156
0.044596
0.0383458
0.0330589
0.0288139
0.0256803
0.0237628
0.0232447
0.0244094
0.0276116
0.0331715
0.0411904
0.0513481
0.0627955
0.0742454
0.0842645
0.0916488
0.0957087
0.0963502
0.0939571
0.0891766
0.0827204
0.0752434
0.0673041
0.0593842
0.0763166
0.0652641
0.0551024
0.0462432
0.0387713
0.0327296
0.028135
0.0250394
0.0235937
0.0240994
0.0270197
0.0329063
0.042195
0.0548915
0.0702786
0.0868393
0.102516
0.115236
0.123469
0.126563
0.12474
0.118842
0.10999
0.0993154
0.0878127
0.0763166
0.0985753
0.083072
0.0689201
0.0566762
0.046417
0.0381234
0.0317173
0.0271456
0.0244664
0.023929
0.0260317
0.0315132
0.0411924
0.0556015
0.0744938
0.0964779
0.119059
0.139177
0.15405
0.161924
0.162402
0.15629
0.145132
0.130717
0.114725
0.0985753
0.127196
0.106033
0.08674
0.0701284
0.0562986
0.0451605
0.036505
0.0301237
0.0259198
0.0240103
0.0248224
0.0291581
0.0381393
0.0528963
0.0739625
0.100583
0.130339
0.159424
0.183597
0.199398
0.205075
0.200824
0.188373
0.170246
0.149079
0.127196
0.162726
0.134791
0.109144
0.0870489
0.0687218
0.0540251
0.0426001
0.0340412
0.0280412
0.0245116
0.0236999
0.0263088
0.0335632
0.0470587
0.0682151
0.0973759
0.132939
0.171073
0.20638
0.233375
0.248119
0.249244
0.237974
0.217331
0.191052
0.162726
0.204566
0.169283
0.1363
0.107654
0.0838637
0.0648306
0.0500622
0.0389339
0.0308876
0.0255745
0.0229789
0.023558
0.0283941
0.0392389
0.0581945
0.0868532
0.125086
0.170067
0.216213
0.256396
0.284036
0.295124
0.2892
0.268984
0.239084
0.204566
0.250196
0.208152
0.167556
0.131659
0.101607
0.0775173
0.058845
0.0447623
0.0344449
0.0272541
0.022866
0.0214024
0.0236075
0.0310317
0.0460067
0.0710786
0.107792
0.155208
0.20893
0.261445
0.304001
0.329353
0.334027
0.319051
0.289002
0.250196
0.294645
0.248213
0.201017
0.157994
0.121355
0.0917453
0.0687387
0.0513835
0.0386135
0.0295018
0.0234095
0.0200988
0.0198851
0.0238605
0.0340898
0.0534499
0.084756
0.129205
0.184718
0.245126
0.30106
0.342589
0.362497
0.358558
0.333745
0.294645
0.330734
0.284318
0.233301
0.184573
0.141877
0.1068
0.0793225
0.058536
0.0432156
0.0321867
0.0245219
0.0196514
0.0174719
0.018531
0.0242974
0.037326
0.0608965
0.097822
0.14863
0.209866
0.27362
0.329094
0.365937
0.377816
0.364362
0.330734
0.350543
0.310002
0.25972
0.208285
0.161241
0.121535
0.0899327
0.0658315
0.0480078
0.0351295
0.0260408
0.019898
0.0162507
0.0151591
0.0174173
0.0248501
0.0403925
0.0674893
0.108635
0.163415
0.226954
0.289938
0.340886
0.369986
0.372574
0.350543
0.347983
0.319094
0.275116
0.225352
0.176935
0.134398
0.0996586
0.0727507
0.0526873
0.0381282
0.0277852
0.0206194
0.0159264
0.0134022
0.0132782
0.0165781
0.0254059
0.042889
0.0723494
0.11567
0.171355
0.233297
0.291406
0.334466
0.354121
0.347983
0.321464
0.307903
0.275307
0.232125
0.186241
0.143577
0.107388
0.0786503
0.0568919
0.0409656
0.0295853
0.0216148
0.0161904
0.012772
0.0112072
0.0118852
0.0160101
0.0258372
0.0444563
0.0747888
0.117905
0.171268
0.227965
0.277931
0.311147
0.321464
0.275164
0.277027
0.258695
0.226206
0.186879
0.147314
0.111933
0.0828019
0.0602026
0.0434031
0.0312841
0.0227275
0.0168051
0.0128481
0.010481
0.00969035
0.0109925
0.0156955
0.0260487
0.0448786
0.0744956
0.115092
0.163314
0.212024
0.251988
0.275164
0.217905
0.231679
0.227278
0.207486
0.177781
0.144368
0.112267
0.084488
0.0621728
0.0451816
0.0327277
0.0238387
0.0176171
0.0133539
0.0105667
0.00902725
0.00883795
0.010599
0.0156308
0.0260204
0.0441517
0.0716154
0.107806
0.148912
0.18818
0.217905
0.16005
0.180123
0.186368
0.178575
0.159688
0.134512
0.107835
0.0831731
0.0624055
0.0460485
0.0337695
0.0248583
0.0185415
0.0141463
0.0111643
0.00927398
0.00836948
0.00863958
0.0107189
0.0158488
0.0258264
0.0424857
0.0666995
0.0972603
0.130316
0.16005
0.109937
0.130698
0.142767
0.144008
0.135008
0.118638
0.098692
0.0785729
0.0605623
0.0457287
0.0342225
0.0256709
0.0195021
0.0151451
0.0121264
0.010106
0.00889244
0.00847452
0.00909574
0.0113752
0.0163979
0.0255892
0.0402046
0.0604912
0.0849034
0.109937
0.0721919
0.0898253
0.103136
0.109428
0.107743
0.0991376
0.0860221
0.0711409
0.0567383
0.044188
0.0340357
0.0262503
0.020501
0.0163647
0.0134469
0.011436
0.0101234
0.00941652
0.00937028
0.0102503
0.0126149
0.0173397
0.0254493
0.0376643
0.0537739
0.0721919

VECTORS u double
-159.85 139.316 0.0
-162.497 139.585 0.0
-164.607 139.692 0.0
-166.29 139.622 0.0
-167.549 139.346 0.0
-168.37 138.857 0.0
-168.735 138.171 0.0
-168.626 137.328 0.0
-168.025 136.394 0.0
-166.918 135.46 0.0
-165.309 134.634 0.0
-163.23 134.031 0.0
-160.752 133.746 0.0
-157.995 133.829 0.0
-155.105 134.269 0.0
-152.245 134.993 0.0
-149.581 135.874 0.0
-147.3 136.752 0.0
-145.678 137.454 0.0
-145.125 137.852 0.0
-146.018 137.976 0.0
-148.274 138.025 0.0
-151.296 138.182 0.0
-154.46 138.466 0.0
-157.425 138.863 0.0
-159.85 139.316 0.0
-157.009 139.093 0.0
-159.824 139.254 0.0
-162.108 139.196 0.0
-163.959 139.076 0.0
-165.374 138.829 0.0
-166.334 138.428 0.0
-166.82 137.879 0.0
-166.808 137.218 0.0
-166.276 136.513 0.0
-165.214 135.862 0.0
-163.633 135.377 0.0
-161.587 135.17 0.0
-159.179 135.316 0.0
-156.56 135.832 0.0
-153.895 136.66 0.0
-151.343 137.692 0.0
-149.035 138.784 0.0
-147.083 139.788 0.0
-145.609 140.549 0.0
-144.791 140.92 0.0
-144.887 140.812 0.0
-146.115 140.296 0.0
-148.406 139.64 0.0
-151.363 139.141 0.0
-154.454 138.933 0.0
-157.009 139.093 0.0
-154.456 139.725 0.0
-157.26 139.41 0.0
-159.607 139.044 0.0
-161.565 138.747 0.0
-163.094 138.437 0.0
-164.164 138.064 0.0
-164.744 137.618 0.0
-164.807 137.128 0.0
-164.33 136.662 0.0
-163.307 136.319 0.0
-161.769 136.214 0.0
-159.797 136.442 0.0
-157.531 137.043 0.0
-155.142 137.984 0.0
-152.798 139.161 0.0
-150.633 140.437 0.0
-148.74 141.673 0.0
-147.181 142.747 0.0
-146.009 143.552 0.0
-145.293 143.986 0.0
-145.143 143.956 0.0
-145.703 143.416 0.0
-147.094 142.452 0.0
-149.273 141.316 0.0
-151.99 140.33 0.0
-154.456 139.725 0.0
-152.645 141.543 0.0
-155.17 140.484 0.0
-157.389 139.59 0.0
-159.32 138.914 0.0
-160.875 138.38 0.0
-161.992 137.92 0.0
-162.622 137.502 0.0
-162.728 137.142 0.0
-162.286 136.904 0.0
-161.301 136.883 0.0
-159.83 137.181 0.0
-157.99 137.86 0.0
-155.948 138.908 0.0
-153.883 140.234 0.0
-151.941 141.695 0.0
-150.217 143.145 0.0
-148.763 144.46 0.0
-147.607 145.55 0.0
-146.771 146.351 0.0
-146.285 146.807 0.0
-146.189 146.862 0.0
-146.542 146.462 0.0
-147.407 145.588 0.0
-148.829 144.318 0.0
-150.748 142.864 0.0
-152.645 141.543 0.0
-152.174 144.134 0.0
-154.163 142.539 0.0
-155.978 141.068 0.0
-157.642 139.861 0.0
-159.043 138.923 0.0
-160.077 138.213 0.0
-160.666 137.696 0.0
-160.753 137.381 0.0
-160.31 137.322 0.0
-159.359 137.601 0.0
-157.983 138.289 0.0
-156.333 139.396 0.0
-154.591 140.845 0.0
-152.918 142.488 0.0
-151.423 144.16 0.0
-150.154 145.72 0.0
-149.13 147.07 0.0
-148.355 148.149 0.0
-147.838 148.923 0.0
-147.596 149.364 0.0
-147.648 149.446 0.0
-148.01 149.138 0.0
-148.693 148.411 0.0
-149.696 147.263 0.0
-150.992 145.767 0.0
-152.174 144.134 0.0
-152.941 146.795 0.0
-154.44 145.031 0.0
-155.753 143.216 0.0
-156.971 141.55 0.0
-158.017 140.148 0.0
-158.791 139.061 0.0
-159.196 138.308 0.0
-159.159 137.917 0.0
-158.65 137.945 0.0
-157.704 138.457 0.0
-156.432 139.48 0.0
-155.006 140.954 0.0
-153.601 142.729 0.0
-152.343 144.614 0.0
-151.291 146.434 0.0
-150.454 148.065 0.0
-149.822 149.432 0.0
-149.387 150.497 0.0
-149.153 151.243 0.0
-149.132 151.659 0.0
-149.337 151.736 0.0
-149.771 151.46 0.0
-150.423 150.817 0.0
-151.261 149.796 0.0
-152.233 148.416 0.0
-152.941 146.795 0.0
-154.438 149.131 0.0
-155.646 147.411 0.0
-156.587 145.512 0.0
-157.39 143.606 0.0
-158.022 141.85 0.0
-158.421 140.381 0.0
-158.512 139.305 0.0
-158.232 138.719 0.0
-157.561 138.714 0.0
-156.555 139.355 0.0
-155.354 140.62 0.0
-154.136 142.374 0.0
-153.051 144.399 0.0
-152.177 146.465 0.0
-151.524 148.398 0.0
-151.067 150.087 0.0
-150.777 151.477 0.0
-150.637 152.545 0.0
-150.647 153.28 0.0
-150.817 153.681 0.0
-151.159 153.747 0.0
-151.673 153.477 0.0
-152.343 152.868 0.0
-153.129 151.92 0.0
-153.966 150.646 0.0
-154.438 149.131 0.0
-156.268 151.08 0.0
-157.336 149.45 0.0
-158.072 147.59 0.0
-158.607 145.618 0.0
-158.921 143.673 0.0
-158.972 141.915 0.0
-158.716 140.515 0.0
-158.119 139.652 0.0
-157.196 139.492 0.0
-156.041 140.133 0.0
-154.83 141.531 0.0
-153.748 143.481 0.0
-152.915 145.695 0.0
-152.358 147.91 0.0
-152.038 149.947 0.0
-151.902 151.706 0.0
-151.903 153.143 0.0
-152.016 154.24 0.0
-152.238 154.993 0.0
-152.576 155.403 0.0
-153.04 155.473 0.0
-153.632 155.208 0.0
-154.338 154.617 0.0
-155.117 153.707 0.0
-155.902 152.5 0.0
-156.268 151.08 0.0
-158.223 152.682 0.0
-159.225 151.132 0.0
-159.862 149.334 0.0
-160.257 147.371 0.0
-160.384 145.348 0.0
-160.201 143.405 0.0
-159.668 141.729 0.0
-158.769 140.555 0.0
-157.55 140.134 0.0
-156.16 140.644 0.0
-154.832 142.06 0.0
-153.779 144.13 0.0
-153.1 146.496 0.0
-152.774 148.852 0.0
-152.717 151.005 0.0
-152.845 152.858 0.0
-153.093 154.372 0.0
-153.429 155.533 0.0
-153.841 156.337 0.0
-154.333 156.786 0.0
-154.915 156.885 0.0
-155.588 156.643 0.0
-156.339 156.076 0.0
-157.133 155.197 0.0
-157.904 154.035 0.0
-158.223 152.682 0.0
-160.195 153.972 0.0
-161.164 152.485 0.0
-161.752 150.742 0.0
-162.081 148.807 0.0
-162.119 146.757 0.0
-161.814 144.702 0.0
-161.116 142.809 0.0
-159.997 141.324 0.0
-158.506 140.563 0.0
-156.83 140.809 0.0
-155.276 142.12 0.0
-154.126 144.235 0.0
-153.487 146.728 0.0
-153.301 149.23 0.0
-153.44 151.519 0.0
-153.782 153.495 0.0
-154.246 155.117 0.0
-154.782 156.374 0.0
-155.373 157.263 0.0
-156.017 157.785 0.0
-156.719 157.944 0.0
-157.482 157.753 0.0
-158.293 157.228 0.0
-159.118 156.389 0.0
-159.896 155.269 0.0
-160.195 153.972 0.0
-162.118 154.949 0.0
-163.071 153.522 0.0
-163.634 151.828 0.0
-163.933 149.923 0.0
-163.937 147.868 0.0
-163.589 145.746 0.0
-162.827 143.692 0.0
-161.597 141.925 0.0
-159.913 140.779 0.0
-157.952 140.638 0.0
-156.085 141.704 0.0
-154.703 143.774 0.0
-153.979 146.364 0.0
-153.838 149.018 0.0
-154.106 151.464 0.0
-154.621 153.586 0.0
-155.271 155.343 0.0
-155.994 156.725 0.0
-156.759 157.729 0.0
-157.559 158.354 0.0
-158.392 158.606 0.0
-159.258 158.494 0.0
-160.144 158.037 0.0
-161.019 157.256 0.0
-161.821 156.189 0.0
-162.118 154.949 0.0
-163.938 155.594 0.0
-164.886 154.233 0.0
-165.439 152.591 0.0
-165.728 150.72 0.0
-165.725 148.673 0.0
-165.379 146.516 0.0
-164.623 144.351 0.0
-163.384 142.352 0.0
-161.62 140.825 0.0
-159.442 140.208 0.0
-157.223 140.871 0.0
-155.481 142.769 0.0
-154.527 145.406 0.0
-154.321 148.213 0.0
-154.647 150.835 0.0
-155.29 153.123 0.0
-156.102 155.034 0.0
-156.999 156.561 0.0
-157.937 157.702 0.0
-158.898 158.457 0.0
-159.875 158.829 0.0
-160.86 158.825 0.0
-161.84 158.462 0.0
-162.782 157.762 0.0
-163.626 156.764 0.0
-163.938 155.594 0.0
-165.605 155.879 0.0
-166.562 154.599 0.0
-167.117 153.02 0.0
-167.407 151.193 0.0
-167.413 149.166 0.0
-167.091 146.999 0.0
-166.382 144.768 0.0
-165.207 142.603 0.0
-163.481 140.747 0.0
-161.212 139.622 0.0
-158.681 139.735 0.0
-156.483 141.289 0.0
-155.14 143.881 0.0
-154.734 146.828 0.0
-155.03 149.641 0.0
-155.748 152.113 0.0
-156.693 154.194 0.0
-157.75 155.879 0.0
-158.856 157.172 0.0
-159.983 158.074 0.0
-161.114 158.586 0.0
-162.235 158.712 0.0
-163.327 158.468 0.0
-164.356 157.871 0.0
-165.262 156.963 0.0
-165.605 155.879 0.0
-167.076 155.787 0.0
-168.056 154.606 0.0
-168.625 153.106 0.0
-168.927 151.337 0.0
-168.951 149.348 0.0
-168.663 147.192 0.0
-168.017 144.933 0.0
-166.944 142.667 0.0
-165.344 140.567 0.0
-163.135 138.979 0.0
-160.434 138.449 0.0
-157.772 139.453 0.0
-155.884 141.843 0.0
-155.106 144.885 0.0
-155.253 147.904 0.0
-155.98 150.583 0.0
-157.02 152.847 0.0
-158.215 154.698 0.0
-159.481 156.149 0.0
-160.773 157.207 0.0
-162.065 157.871 0.0
-163.335 158.144 0.0
-164.557 158.037 0.0
-165.693 157.564 0.0
-166.68 156.764 0.0
-167.076 155.787 0.0
-168.308 155.317 0.0
-169.328 154.255 0.0
-169.928 152.854 0.0
-170.254 151.162 0.0
-170.303 149.229 0.0
-170.054 147.105 0.0
-169.472 144.85 0.0
-168.508 142.537 0.0
-167.072 140.286 0.0
-165.043 138.342 0.0
-162.376 137.182 0.0
-159.383 137.447 0.0
-156.864 139.393 0.0
-155.515 142.423 0.0
-155.353 145.651 0.0
-155.994 148.566 0.0
-157.077 151.033 0.0
-158.382 153.058 0.0
-159.79 154.67 0.0
-161.24 155.885 0.0
-162.693 156.706 0.0
-164.12 157.135 0.0
-165.486 157.176 0.0
-166.747 156.842 0.0
-167.837 156.17 0.0
-168.308 155.317 0.0
-169.266 154.493 0.0
-170.346 153.569 0.0
-170.994 152.288 0.0
-171.359 150.694 0.0
-171.445 148.836 0.0
-171.236 146.767 0.0
-170.714 144.543 0.0
-169.846 142.227 0.0
-168.568 139.903 0.0
-166.767 137.734 0.0
-164.31 136.063 0.0
-161.248 135.517 0.0
-158.179 136.724 0.0
-156.085 139.514 0.0
-155.401 142.908 0.0
-155.819 146.097 0.0
-156.874 148.801 0.0
-158.248 151.016 0.0
-159.776 152.791 0.0
-161.369 154.161 0.0
-162.978 155.138 0.0
-164.562 155.723 0.0
-166.081 155.921 0.0
-167.482 155.737 0.0
-168.694 155.206 0.0
-169.266 154.493 0.0
-169.917 153.36 0.0
-171.081 152.589 0.0
-171.797 151.447 0.0
-172.218 149.973 0.0
-172.353 148.214 0.0
-172.193 146.224 0.0
-171.726 144.057 0.0