# vtk DataFile Version 2.0
Particulate Flow Equations Solution
ASCII
DATASET STRUCTURED_GRID
DIMENSIONS 26 26 1
POINTS 676 double
-45 -45 0
-41.5385 -45 0
-38.0769 -45 0
-34.6154 -45 0
-31.1538 -45 0
-27.6923 -45 0
-24.2308 -45 0
-20.7692 -45 0
-17.3077 -45 0
-13.8462 -45 0
-10.3846 -45 0
-6.92308 -45 0
-3.46154 -45 0
1.77636e-015 -45 0
3.46154 -45 0
6.92308 -45 0
10.3846 -45 0
13.8462 -45 0
17.3077 -45 0
20.7692 -45 0
24.2308 -45 0
27.6923 -45 0
31.1538 -45 0
34.6154 -45 0
38.0769 -45 0
45 -45 0
-45 -41.5385 0
-41.5385 -41.5385 0
-38.0769 -41.5385 0
-34.6154 -41.5385 0
-31.1538 -41.5385 0
-27.6923 -41.5385 0
-24.2308 -41.5385 0
-20.7692 -41.5385 0
-17.3077 -41.5385 0
-13.8462 -41.5385 0
-10.3846 -41.5385 0
-6.92308 -41.5385 0
-3.46154 -41.5385 0
1.77636e-015 -41.5385 0
3.46154 -41.5385 0
6.92308 -41.5385 0
10.3846 -41.5385 0
13.8462 -41.5385 0
17.3077 -41.5385 0
20.7692 -41.5385 0
24.2308 -41.5385 0
27.6923 -41.5385 0
31.1538 -41.5385 0
34.6154 -41.5385 0
38.0769 -41.5385 0
45 -41.5385 0
-45 -38.0769 0
-41.5385 -38.0769 0
-38.0769 -38.0769 0
-34.6154 -38.0769 0
-31.1538 -38.0769 0
-27.6923 -38.0769 0
-24.2308 -38.0769 0
-20.7692 -38.0769 0
-17.3077 -38.0769 0
-13.8462 -38.0769 0
-10.3846 -38.0769 0
-6.92308 -38.0769 0
-3.46154 -38.0769 0
1.77636e-015 -38.0769 0
3.46154 -38.0769 0
6.92308 -38.0769 0
10.3846 -38.0769 0
13.8462 -38.0769 0
17.3077 -38.0769 0
20.7692 -38.0769 0
24.2308 -38.0769 0
27.6923 -38.0769 0
31.1538 -38.0769 0
34.6154 -38.0769 0
38.0769 -38.0769 0
45 -38.0769 0
-45 -34.6154 0
-41.5385 -34.6154 0
-38.0769 -34.6154 0
-34.6154 -34.6154 0
-31.1538 -34.6154 0
-27.6923 -34.6154 0
-24.2308 -34.6154 0
-20.7692 -34.6154 0
-17.3077 -34.6154 0
-13.8462 -34.6154 0
-10.3846 -34.6154 0
-6.92308 -34.6154 0
-3.46154 -34.6154 0
1.77636e-015 -34.6154 0
3.46154 -34.6154 0
6.92308 -34.6154 0
10.3846 -34.6154 0
13.8462 -34.6154 0
17.3077 -34.6154 0
20.7692 -34.6154 0
24.2308 -34.6154 0
27.6923 -34.6154 0
31.1538 -34.6154 0
34.6154 -34.6154 0
38.0769 -34.6154 0
45 -34.6154 0
-45 -31.1538 0
-41.5385 -31.1538 0
-38.0769 -31.1538 0
-34.6154 -31.1538 0
-31.1538 -31.1538 0
-27.6923 -31.1538 0
-24.2308 -31.1538 0
-20.7692 -31.1538 0
-17.3077 -31.1538 0
-13.8462 -31.1538 0
-10.3846 -31.1538 0
-6.92308 -31.1538 0
-3.46154 -31.1538 0
1.77636e-015 -31.1538 0
3.46154 -31.1538 0
6.92308 -31.1538 0
10.3846 -31.1538 0
13.8462 -31.1538 0
17.3077 -31.1538 0
20.7692 -31.1538 0
24.2308 -31.1538 0
27.6923 -31.1538 0
31.1538 -31.1538 0
34.6154 -31.1538 0
38.0769 -31.1538 0
45 -31.1538 0
-45 -27.6923 0
-41.5385 -27.6923 0
-38.0769 -27.6923 0
-34.6154 -27.6923 0
-31.1538 -27.6923 0
-27.6923 -27.6923 0
-24.2308 -27.6923 0
-20.7692 -27.6923 0
-17.3077 -27.6923 0
-13.8462 -27.6923 0
-10.3846 -27.6923 0
-6.92308 -27.6923 0
-3.46154 -27.6923 0
1.77636e-015 -27.6923 0
3.46154 -27.6923 0
6.92308 -27.6923 0
10.3846 -27.6923 0
13.8462 -27.6923 0
17.3077 -27.6923 0
20.7692 -27.6923 0
24.2308 -27.6923 0
27.6923 -27.6923 0
31.1538 -27.6923 0
34.6154 -27.6923 0
38.0769 -27.6923 0
45 -27.6923 0
-45 -24.2308 0
-41.5385 -24.2308 0
-38.0769 -24.2308 0
-34.6154 -24.2308 0
-31.1538 -24.2308 0
-27.6923 -24.2308 0
-24.2308 -24.2308 0
-20.7692 -24.2308 0
-17.3077 -24.2308 0
-13.8462 -24.2308 0
-10.3846 -24.2308 0
-6.92308 -24.2308 0
-3.46154 -24.2308 0
1.77636e-015 -24.2308 0
3.46154 -24.2308 0
6.92308 -24.2308 0
10.3846 -24.2308 0
13.8462 -24.2308 0
17.3077 -24.2308 0
20.7692 -24.2308 0
24.2308 -24.2308 0
27.6923 -24.2308 0
31.1538 -24.2308 0
34.6154 -24.2308 0
38.0769 -24.2308 0
45 -24.2308 0
-45 -20.7692 0
-41.5385 -20.7692 0
-38.0769 -20.7692 0
-34.6154 -20.7692 0
-31.1538 -20.7692 0
-27.6923 -20.7692 0
-24.2308 -20.7692 0
-20.7692 -20.7692 0
-17.3077 -20.7692 0
-13.8462 -20.7692 0
-10.3846 -20.7692 0
-6.92308 -20.7692 0
-3.46154 -20.7692 0
1.77636e-015 -20.7692 0
3.46154 -20.7692 0
6.92308 -20.7692 0
10.3846 -20.7692 0
13.8462 -20.7692 0
17.3077 -20.7692 0
20.7692 -20.7692 0
24.2308 -20.7692 0
27.6923 -20.7692 0
31.1538 -20.7692 0
34.6154 -20.7692 0
38.0769 -20.7692 0
45 -20.7692 0
-45 -17.3077 0
-41.5385 -17.3077 0
-38.0769 -17.3077 0
-34.6154 -17.3077 0
-31.1538 -17.3077 0
-27.6923 -17.3077 0
-24.2308 -17.3077 0
-20.7692 -17.3077 0
-17.3077 -17.3077 0
-13.8462 -17.3077 0
-10.3846 -17.3077 0
-6.92308 -17.3077 0
-3.46154 -17.3077 0
1.77636e-015 -17.3077 0
3.46154 -17.3077 0
6.92308 -17.3077 0
10.3846 -17.3077 0
13.8462 -17.3077 0
17.3077 -17.3077 0
20.7692 -17.3077 0
24.2308 -17.3077 0
27.6923 -17.3077 0
31.1538 -17.3077 0
34.6154 -17.3077 0
38.0769 -17.3077 0
45 -17.3077 0
-45 -13.8462 0
-41.5385 -13.8462 0
-38.0769 -13.8462 0
-34.6154 -13.8462 0
-31.1538 -13.8462 0
-27.6923 -13.8462 0
-24.2308 -13.8462 0
-20.7692 -13.8462 0
-17.3077 -13.8462 0
-13.8462 -13.8462 0
-10.3846 -13.8462 0
-6.92308 -13.8462 0
-3.46154 -13.8462 0
1.77636e-015 -13.8462 0
3.46154 -13.8462 0
6.92308 -13.8462 0
10.3846 -13.8462 0
13.8462 -13.8462 0
17.3077 -13.8462 0
20.7692 -13.8462 0
24.2308 -13.8462 0
27.6923 -13.8462 0
31.1538 -13.8462 0
34.6154 -13.8462 0
38.0769 -13.8462 0
45 -13.8462 0
-45 -10.3846 0
-41.5385 -10.3846 0
-38.0769 -10.3846 0
-34.6154 -10.3846 0
-31.1538 -10.3846 0
-27.6923 -10.3846 0
-24.2308 -10.3846 0
-20.7692 -10.3846 0
-17.3077 -10.3846 0
-13.8462 -10.3846 0
-10.3846 -10.3846 0
-6.92308 -10.3846 0
-3.46154 -10.3846 0
1.77636e-015 -10.3846 0
3.46154 -10.3846 0
6.92308 -10.3846 0
10.3846 -10.3846 0
13.8462 -10.3846 0
17.3077 -10.3846 0
20.7692 -10.3846 0
24.2308 -10.3846 0
27.6923 -10.3846 0
31.1538 -10.3846 0
34.6154 -10.3846 0
38.0769 -10.3846 0
45 -10.3846 0
-45 -6.92308 0
-41.5385 -6.92308 0
-38.0769 -6.92308 0
-34.6154 -6.92308 0
-31.1538 -6.92308 0
-27.6923 -6.92308 0
-24.2308 -6.92308 0
-20.7692 -6.92308 0
-17.3077 -6.92308 0
-13.8462 -6.92308 0
-10.3846 -6.92308 0
-6.92308 -6.92308 0
-3.46154 -6.92308 0
1.77636e-015 -6.92308 0
3.46154 -6.92308 0
6.92308 -6.92308 0
10.3846 -6.92308 0
13.8462 -6.92308 0
17.3077 -6.92308 0
20.7692 -6.92308 0
24.2308 -6.92308 0
27.6923 -6.92308 0
31.1538 -6.92308 0
34.6154 -6.92308 0
38.0769 -6.92308 0
45 -6.92308 0
-45 -3.46154 0
-41.5385 -3.46154 0
-38.0769 -3.46154 0
-34.6154 -3.46154 0
-31.1538 -3.46154 0
-27.6923 -3.46154 0
-24.2308 -3.46154 0
-20.7692 -3.46154 0
-17.3077 -3.46154 0
-13.8462 -3.46154 0
-10.3846 -3.46154 0
-6.92308 -3.46154 0
-3.46154 -3.46154 0
1.77636e-015 -3.46154 0
3.46154 -3.46154 0
6.92308 -3.46154 0
10.3846 -3.46154 0
13.8462 -3.46154 0
17.3077 -3.46154 0
20.7692 -3.46154 0
24.2308 -3.46154 0
27.6923 -3.46154 0
31.1538 -3.46154 0
34.6154 -3.46154 0
38.0769 -3.46154 0
45 -3.46154 0
-45 1.77636e-015 0
-41.5385 1.77636e-015 0
-38.0769 1.77636e-015 0
-34.6154 1.77636e-015 0
-31.1538 1.77636e-015 0
-27.6923 1.77636e-015 0
-24.2308 1.77636e-015 0
-20.7692 1.77636e-015 0
-17.3077 1.77636e-015 0
-13.8462 1.77636e-015 0
-10.3846 1.77636e-015 0
-6.92308 1.77636e-015 0
-3.46154 1.77636e-015 0
1.77636e-015 1.77636e-015 0
3.46154 1.77636e-015 0
6.92308 1.77636e-015 0
10.3846 1.77636e-015 0
13.8462 1.77636e-015 0
17.3077 1.77636e-015 0
20.7692 1.77636e-015 0
24.2308 1.77636e-015 0
27.6923 1.77636e-015 0
31.1538 1.77636e-015 0
34.6154 1.77636e-015 0
38.0769 1.77636e-015 0
45 1.77636e-015 0
-45 3.46154 0
-41.5385 3.46154 0
-38.0769 3.46154 0
-34.6154 3.46154 0
-31.1538 3.46154 0
-27.6923 3.46154 0
-24.2308 3.46154 0
-20.7692 3.46154 0
-17.3077 3.46154 0
-13.8462 3.46154 0
-10.3846 3.46154 0
-6.92308 3.46154 0
-3.46154 3.46154 0
1.77636e-015 3.46154 0
3.46154 3.46154 0
6.92308 3.46154 0
10.3846 3.46154 0
13.8462 3.46154 0
17.3077 3.46154 0
20.7692 3.46154 0
24.2308 3.46154 0
27.6923 3.46154 0
31.1538 3.46154 0
34.6154 3.46154 0
38.0769 3.46154 0
45 3.46154 0
-45 6.92308 0
-41.5385 6.92308 0
-38.0769 6.92308 0
-34.6154 6.92308 0
-31.1538 6.92308 0
-27.6923 6.92308 0
-24.2308 6.92308 0
-20.7692 6.92308 0
-17.3077 6.92308 0
-13.8462 6.92308 0
-10.3846 6.92308 0
-6.92308 6.92308 0
-3.46154 6.92308 0
1.77636e-015 6.92308 0
3.46154 6.92308 0
6.92308 6.92308 0
10.3846 6.92308 0
13.8462 6.92308 0
17.3077 6.92308 0
20.7692 6.92308 0
24.2308 6.92308 0
27.6923 6.92308 0
31.1538 6.92308 0
34.6154 6.92308 0
38.0769 6.92308 0
45 6.92308 0
-45 10.3846 0
-41.5385 10.3846 0
-38.0769 10.3846 0
-34.6154 10.3846 0
-31.1538 10.3846 0
-27.6923 10.3846 0
-24.2308 10.3846 0
-20.7692 10.3846 0
-17.3077 10.3846 0
-13.8462 10.3846 0
-10.3846 10.3846 0
-6.92308 10.3846 0
-3.46154 10.3846 0
1.77636e-015 10.3846 0
3.46154 10.3846 0
6.92308 10.3846 0
10.3846 10.3846 0
13.8462 10.3846 0
17.3077 10.3846 0
20.7692 10.3846 0
24.2308 10.3846 0
27.6923 10.3846 0
31.1538 10.3846 0
34.6154 10.3846 0
38.0769 10.3846 0
45 10.3846 0
-45 13.8462 0
-41.5385 13.8462 0
-38.0769 13.8462 0
-34.6154 13.8462 0
-31.1538 13.8462 0
-27.6923 13.8462 0
-24.2308 13.8462 0
-20.7692 13.8462 0
-17.3077 13.8462 0
-13.8462 13.8462 0
-10.3846 13.8462 0
-6.92308 13.8462 0
-3.46154 13.8462 0
1.77636e-015 13.8462 0
3.46154 13.8462 0
6.92308 13.8462 0
10.3846 13.8462 0
13.8462 13.8462 0
17.3077 13.8462 0
20.7692 13.8462 0
24.2308 13.8462 0
27.6923 13.8462 0
31.1538 13.8462 0
34.6154 13.8462 0
38.0769 13.8462 0
45 13.8462 0
-45 17.3077 0
-41.5385 17.3077 0
-38.0769 17.3077 0
-34.6154 17.3077 0
-31.1538 17.3077 0
-27.6923 17.3077 0
-24.2308 17.3077 0
-20.7692 17.3077 0
-17.3077 17.3077 0
-13.8462 17.3077 0
-10.3846 17.3077 0
-6.92308 17.3077 0
-3.46154 17.3077 0
1.77636e-015 17.3077 0
3.46154 17.3077 0
6.92308 17.3077 0
10.3846 17.3077 0
13.8462 17.3077 0
17.3077 17.3077 0
20.7692 17.3077 0
24.2308 17.3077 0
27.6923 17.3077 0
31.1538 17.3077 0
34.6154 17.3077 0
38.0769 17.3077 0
45 17.3077 0
-45 20.7692 0
-41.5385 20.7692 0
-38.0769 20.7692 0
-34.6154 20.7692 0
-31.1538 20.7692 0
-27.6923 20.7692 0
-24.2308 20.7692 0
-20.7692 20.7692 0
-17.3077 20.7692 0
-13.8462 20.7692 0
-10.3846 20.7692 0
-6.92308 20.7692 0
-3.46154 20.7692 0
1.77636e-015 20.7692 0
3.46154 20.7692 0
6.92308 20.7692 0
10.3846 20.7692 0
13.8462 20.7692 0
17.3077 20.7692 0
20.7692 20.7692 0
24.2308 20.7692 0
27.6923 20.7692 0
31.1538 20.7692 0
34.6154 20.7692 0
38.0769 20.7692 0
45 20.7692 0
-45 24.2308 0
-41.5385 24.2308 0
-38.0769 24.2308 0
-34.6154 24.2308 0
-31.1538 24.2308 0
-27.6923 24.2308 0
-24.2308 24.2308 0
-20.7692 24.2308 0
-17.3077 24.2308 0
-13.8462 24.2308 0
-10.3846 24.2308 0
-6.92308 24.2308 0
-3.46154 24.2308 0
1.77636e-015 24.2308 0
3.46154 24.2308 0
6.92308 24.2308 0
10.3846 24.2308 0
13.8462 24.2308 0
17.3077 24.2308 0
20.7692 24.2308 0
24.2308 24.2308 0
27.6923 24.2308 0
31.1538 24.2308 0
34.6154 24.2308 0
38.0769 24.2308 0
45 24.2308 0
-45 27.6923 0
-41.5385 27.6923 0
-38.0769 27.6923 0
-34.6154 27.6923 0
-31.1538 27.6923 0
-27.6923 27.6923 0
-24.2308 27.6923 0
-20.7692 27.6923 0
-17.3077 27.6923 0
-13.8462 27.6923 0
-10.3846 27.6923 0
-6.92308 27.6923 0
-3.46154 27.6923 0
1.77636e-015 27.6923 0
3.46154 27.6923 0
6.92308 27.6923 0
10.3846 27.6923 0
13.8462 27.6923 0
17.3077 27.6923 0
20.7692 27.6923 0
24.2308 27.6923 0
27.6923 27.6923 0
31.1538 27.6923 0
34.6154 27.6923 0
38.0769 27.6923 0
45 27.6923 0
-45 31.1538 0
-41.5385 31.1538 0
-38.0769 31.1538 0
-34.6154 31.1538 0
-31.1538 31.1538 0
-27.6923 31.1538 0
-24.2308 31.1538 0
-20.7692 31.1538 0
-17.3077 31.1538 0
-13.8462 31.1538 0
-10.3846 31.1538 0
-6.92308 31.1538 0
-3.46154 31.1538 0
1.77636e-015 31.1538 0
3.46154 31.1538 0
6.92308 31.1538 0
10.3846 31.1538 0
13.8462 31.1538 0
17.3077 31.1538 0
20.7692 31.1538 0
24.2308 31.1538 0
27.6923 31.1538 0
31.1538 31.1538 0
34.6154 31.1538 0
38.0769 31.1538 0
45 31.1538 0
-45 34.6154 0
-41.5385 34.6154 0
-38.0769 34.6154 0
-34.6154 34.6154 0
-31.1538 34.6154 0
-27.6923 34.6154 0
-24.2308 34.6154 0
-20.7692 34.6154 0
-17.3077 34.6154 0
-13.8462 34.6154 0
-10.3846 34.6154 0
-6.92308 34.6154 0
-3.46154 34.6154 0
1.77636e-015 34.6154 0
3.46154 34.6154 0
6.92308 34.6154 0
10.3846 34.6154 0
13.8462 34.6154 0
17.3077 34.6154 0
20.7692 34.6154 0
24.2308 34.6154 0
27.6923 34.6154 0
31.1538 34.6154 0
34.6154 34.6154 0
38.0769 34.6154 0
45 34.6154 0
-45 38.0769 0
-41.5385 38.0769 0
-38.0769 38.0769 0
-34.6154 38.0769 0
-31.1538 38.0769 0
-27.6923 38.0769 0
-24.2308 38.0769 0
-20.7692 38.0769 0
-17.3077 38.0769 0
-13.8462 38.0769 0
-10.3846 38.0769 0
-6.92308 38.0769 0
-3.46154 38.0769 0
1.77636e-015 38.0769 0
3.46154 38.0769 0
6.92308 38.0769 0
10.3846 38.0769 0
13.8462 38.0769 0
17.3077 38.0769 0
20.7692 38.0769 0
24.2308 38.0769 0
27.6923 38.0769 0
31.1538 38.0769 0
34.6154 38.0769 0
38.0769 38.0769 0
45 38.0769 0
-45 45 0
-41.5385 45 0
-38.0769 45 0
-34.6154 45 0
-31.1538 45 0
-27.6923 45 0
-24.2308 45 0
-20.7692 45 0
-17.3077 45 0
-13.8462 45 0
-10.3846 45 0
-6.92308 45 0
-3.46154 45 0
1.77636e-015 45 0
3.46154 45 0
6.92308 45 0
10.3846 45 0
13.8462 45 0
17.3077 45 0
20.7692 45 0
24.2308 45 0
27.6923 45 0
31.1538 45 0
34.6154 45 0
38.0769 45 0
45 45 0

POINT_DATA 676
SCALARS h double 1
LOOkUP_TABLE default
2.56874e-005
3.71113e-005
4.1751e-005
4.10236e-005
4.29535e-005
2.93801e-005
2.85307e-005
6.35161e-005
9.27349e-005
6.75466e-005
1.39536e-005
5.25066e-005
0.000525414
0.0013466
0.000534505
5.69457e-005
9.3866e-006
4.83306e-005
8.99384e-005
8.1745e-005
2.5918e-005
1.5333e-005
4.91921e-005
3.9709e-005
2.79738e-005
2.56874e-005
3.75689e-005
5.42663e-005
6.10381e-005
5.99681e-005
6.27872e-005
4.29334e-005
4.17243e-005
9.29123e-005
0.000135565
9.86224e-005
2.03746e-005
7.65163e-005
0.000765787
0.0019627
0.000779063
8.29867e-005
1.37121e-005
7.05722e-005
0.000131417
0.000119535
3.79184e-005
2.24239e-005
7.19058e-005
5.80491e-005
4.09029e-005
3.75689e-005
4.22314e-005
6.09988e-005
6.86042e-005
6.73975e-005
7.05544e-005
4.82251e-005
4.68105e-005
0.00010418
0.00015176
0.000110273
2.2756e-005
8.59184e-005
0.000859794
0.00220369
0.000874729
9.31813e-005
1.53145e-005
7.88704e-005
0.000146847
0.000133634
4.24619e-005
2.51893e-005
8.07658e-005
6.52389e-005
4.59727e-005
4.22314e-005
4.14852e-005
5.9922e-005
6.73914e-005
6.61998e-005
6.93842e-005
4.78506e-005
4.70576e-005
0.000112611
0.000164422
0.000116351
2.42133e-005
8.41104e-005
0.000844133
0.00216403
0.000858858
9.12857e-005
1.65042e-005
8.36317e-005
0.000156776
0.000142546
4.53286e-005
2.53928e-005
8.00187e-005
6.41143e-005
4.51554e-005
4.14852e-005
4.3481e-005
6.28037e-005
7.06199e-005
6.94468e-005
7.44137e-005
5.63563e-005
4.94723e-005
2.46621e-005
3.47184e-005
8.0439e-005
1.84333e-005
8.89047e-005
0.000881369
0.00225716
0.00089712
9.67186e-005
1.17999e-005
5.85069e-005
0.000103807
9.91918e-005
2.3657e-005
3.86676e-005
8.80936e-005
6.68691e-005
4.73351e-005
4.3481e-005
2.89885e-005
4.18649e-005
4.70601e-005
4.67206e-005
5.51099e-005
3.42215e-005
5.15681e-006
0.00042295
0.000523728
1.50574e-005
6.95367e-006
6.49165e-005
0.000601474
0.00153147
0.000602586
5.34325e-005
1.92548e-005
9.64971e-005
4.53049e-005
1.44613e-005
3.79526e-005
1.449e-005
5.11314e-005
4.45404e-005
3.16187e-005
2.89885e-005
3.16061e-005
4.56757e-005
5.12573e-005
5.20455e-005
5.3486e-005
6.16697e-006
0.00125186
0.00610867
0.00779094
0.00451774
0.00206276
0.000440429
0.000976726
0.00240539
0.00117132
0.000756991
0.00197348
0.00454366
0.00754462
0.00567037
0.00116026
8.01824e-006
5.54197e-005
5.03547e-005
3.43507e-005
3.16061e-005
7.50369e-005
0.000108451
0.000121401
0.00012746
6.41796e-005
0.000544114
0.00583825
0.0270684
0.0343146
0.020337
0.00921637
0.0029705
0.00358378
0.00743425
0.00400699
0.0034771
0.00903127
0.0205948
0.0340321
0.0255562
0.00503163
2.79722e-005
0.000157142
0.000123403
8.12401e-005
7.50369e-005
0.000102752
0.000148435
0.000166049
0.000174406
0.000131838
2.05351e-005
0.00679377
0.0322933
0.0406097
0.0239497
0.0109017
0.00321872
0.00425916
0.00909506
0.00439486
0.00358824
0.0107671
0.0242223
0.0402791
0.0304759
0.00590752
4.30613e-005
0.000229831
0.000170605
0.000111112
0.000102752
5.21711e-005
7.52907e-005
8.45052e-005
9.10657e-005
3.53528e-005
1.25528e-005
0.00388232
0.0189908
0.0235195
0.0137081
0.00630411
0.00234375
0.00172133
0.00273538
0.00152624
0.00203219
0.00615772
0.0138485
0.0232296
0.0178656
0.00334267
1.85495e-005
0.000115424
8.61261e-005
5.64096e-005
5.21711e-005
3.86763e-005
5.58597e-005
6.2708e-005
6.50411e-005
5.35123e-005
8.28234e-006
0.00159487
0.00805996
0.00984987
0.00583413
0.00269677
0.000727969
0.000464007
0.000351119
0.000182201
0.000483564
0.00243744
0.00605198
0.0102183
0.00782645
0.0014077
1.57199e-005
8.4034e-005
6.34903e-005
4.18878e-005
3.86763e-005
1.05562e-005
1.52547e-005
1.7116e-005
1.7895e-005
1.54279e-005
2.1195e-006
0.000546686
0.00291128
0.00357966
0.00223657
0.000460587
-0.000250156
0.00103471
0.00978045
0.00378331
0.000122088
0.001284
0.00323982
0.00456089
0.00302519
0.00050198
4.35553e-006
2.37924e-005
1.77316e-005
1.14201e-005
1.05562e-005
1.05454e-005
1.52179e-005
1.71292e-005
1.63662e-005
1.87611e-005
1.55578e-005
4.04589e-005
0.000820532
0.000318042
0.000334959
0.00190664
0.0254966
0.202386
0.481246
0.205023
0.0248244
0.000560308
0.00059548
0.00124957
0.000727237
4.7829e-005
7.475e-006
1.85381e-005
1.55081e-005
1.15126e-005
1.05454e-005
0.000172138
0.000248368
0.000279179
0.000273991
0.000286757
0.000161578
0.000654488
0.00302047
0.00403603
0.00113098
0.0088997
0.324762
2.69172
6.47755
2.69827
0.321594
0.00298626
0.0009994
0.00370253
0.00275314
0.000554227
7.0335e-005
0.000326321
0.00026488
0.000187328
0.000172138
0.000569178
0.000820837
0.000922435
0.000905823
0.000946308
0.00051436
0.00235069
0.00991361
0.0141792
0.00291292
0.0301986
1.31243
11.1641
27.3072
11.1854
1.30059
0.00671227
0.00327433
0.0117592
0.00921533
0.00202206
0.000229161
0.00108232
0.000876475
0.000619269
0.000569178
0.000451594
0.000650551
0.00073079
0.00071708
0.000751179
0.000403329
0.00259407
0.0112668
0.015353
0.00394038
0.0122197
1.58492
14.653
38.092
14.6895
1.5919
0.0149678
0.00424659
0.0142447
0.0107306
0.00225775
0.000211414
0.000863977
0.000694419
0.000491359
0.000451594
3.74371e-005
5.24649e-005
5.86926e-005
5.49396e-005
5.35393e-005
2.09423e-005
0.00265354
0.012366
0.0159133
0.00746211
0.00471109
0.316398
2.96896
7.84797
2.97586
0.311525
0.00498738
0.00937782
0.0154975
0.0117437
0.00232859
2.8458e-005
6.80791e-005
5.29735e-005
4.16609e-005
3.74371e-005
5.56036e-005
8.02703e-005
8.97536e-005
9.52227e-005
6.63326e-005
1.24117e-005
0.00388563
0.0184221
0.023173
0.0147665
0.00346016
0.00476768
0.0938419
0.316093
0.0986285
0.0024733
0.00741302
0.0149706
0.0230894
0.0174183
0.00337695
1.56858e-005
0.000115505
9.15206e-005
6.01427e-005
5.56036e-005
7.4359e-005
0.000107462
0.000120262
0.000128628
5.96168e-005
0.000311343
0.00530504
0.0247713
0.0311463
0.0183101
0.00877612
0.00298741
0.000633209
0.00375909
0.000472745
0.00330008
0.00848931
0.0185036
0.0308849
0.0233285
0.00449188
3.05904e-005
0.000170461
0.000123535
8.04036e-005
7.4359e-005
6.15396e-005
8.90003e-005
9.99672e-005
0.00010919
2.08056e-005
0.000790613
0.0038655
0.0170581
0.0214228
0.0126499
0.00568731
0.00212994
0.00258952
0.00442107
0.00245128
0.00215673
0.00559219
0.0128093
0.021224
0.0160069
0.00305987
3.38937e-005
0.000153526
0.000103141
6.6579e-005
6.15396e-005
1.93709e-005
2.80248e-005
3.1427e-005
3.22925e-005
3.66987e-005
2.57966e-006
0.000477803
0.00218483
0.00283213
0.00167552
0.0007788
7.10667e-005
0.000492924
0.00125845
0.000552873
0.000260466
0.000745006
0.00170287
0.00283635
0.00208299
0.000423675
1.1912e-005
4.71567e-005
3.21553e-005
2.10071e-005
1.93709e-005
1.64613e-005
2.37772e-005
2.6759e-005
2.61976e-005
3.12139e-005
3.13861e-005
7.27777e-006
1.83528e-005
3.19861e-005
2.66703e-005
6.83571e-006
4.12474e-005
0.000339926
0.000860696
0.000347086
3.73312e-005
4.09986e-006
9.06507e-006
2.6136e-005
3.86697e-005
1.78162e-005
2.43032e-005
2.32261e-005
2.44394e-005
1.80296e-005
1.64613e-005
5.01036e-005
7.237e-005
8.13658e-005
8.02009e-005
8.58398e-005
5.3608e-005
5.10258e-005
0.000124073
0.000191651
0.000145211
3.15261e-005
0.000102753
0.00102113
0.0026186
0.001043
0.000113538
1.68936e-005
8.73355e-005
0.000181926
0.000186578
6.29978e-005
2.4895e-005
9.37174e-005
7.7276e-005
5.45584e-005
5.01036e-005
3.94001e-005
5.69203e-005
6.40169e-005
6.29184e-005
6.56268e-005
4.41694e-005
4.42234e-005
0.000100646
0.000148063
0.000108107
2.27451e-005
8.00934e-005
0.000802629
0.00205758
0.000816824
8.70035e-005
1.4868e-005
7.62226e-005
0.00014244
0.000130508
4.17344e-005
2.23529e-005
7.53342e-005
6.09035e-005
4.28873e-005
3.94001e-005
2.76314e-005
3.99368e-005
4.49258e-005
4.41339e-005
4.62193e-005
3.16583e-005
3.06818e-005
6.8145e-005
9.93695e-005
7.23204e-005
1.49192e-005
5.64975e-005
0.000565225
0.00144858
0.000574959
6.12519e-005
1.00622e-005
5.18335e-005
9.63921e-005
8.75821e-005
2.77905e-005
1.66283e-005
5.29449e-005
4.27158e-005
3.008e-005
2.76314e-005
2.56874e-005
3.71113e-005
4.1751e-005
4.10236e-005
4.29535e-005
2.93801e-005
2.85307e-005
6.35161e-005
9.27349e-005
6.75466e-005
1.39536e-005
5.25066e-005
0.000525414
0.0013466
0.000534505
5.69457e-005
9.3866e-006
4.83306e-005
8.99384e-005
8.1745e-005
2.5918e-005
1.5333e-005
4.91921e-005
3.9709e-005
2.79738e-005
2.56874e-005

VECTORS u double
2.06301 1.98592 0.0
2.62466 1.98526 0.0
3.04773 1.98494 0.0
3.50096 1.98486 0.0
4.25024 1.98481 0.0
4.09069 1.98465 0.0
6.58428 1.98558 0.0
7.67433 1.98548 0.0
7.10762 1.98448 0.0
6.89216 1.98302 0.0
-10.3366 1.98608 0.0
26.0758 1.97923 0.0
20.7876 1.97885 0.0
-0.225764 1.97884 0.0
-21.402 1.97895 0.0
-27.3561 1.97926 0.0
15.4807 1.98672 0.0
-4.83599 1.98287 0.0
-5.54486 1.98367 0.0
-6.31487 1.98512 0.0
-6.18704 1.98627 0.0
1.37061 1.98612 0.0
-2.33178 1.98489 0.0
-1.92637 1.98504 0.0
-1.83766 1.98575 0.0
2.06301 1.98592 0.0
2.06267 2.4704 0.0
2.6237 2.46988 0.0
3.04637 2.46958 0.0
3.49939 2.46948 0.0
4.2485 2.46941 0.0
4.08775 2.46914 0.0
6.5836 2.47014 0.0
7.67087 2.47036 0.0
7.10178 2.46943 0.0
6.88899 2.46769 0.0
-10.3249 2.4686 0.0
26.0716 2.46595 0.0
20.7847 2.46605 0.0
-0.225628 2.46628 0.0
-21.3991 2.46616 0.0
-27.352 2.46611 0.0
15.4667 2.46913 0.0
-4.8351 2.46754 0.0
-5.54009 2.46872 0.0
-6.31197 2.47016 0.0
-6.18595 2.47096 0.0
1.37126 2.47038 0.0
-2.331 2.46945 0.0
-1.92577 2.46962 0.0
-1.8371 2.47019 0.0
2.06267 2.4704 0.0
2.06253 2.84505 0.0
2.62321 2.84445 0.0
3.04562 2.8441 0.0
3.49852 2.84398 0.0
4.24758 2.84384 0.0
4.08819 2.84327 0.0
6.58199 2.84339 0.0
7.6687 2.84349 0.0
7.09897 2.84146 0.0
6.88284 2.8386 0.0
-10.3638 2.83639 0.0
26.0773 2.83995 0.0
20.784 2.84045 0.0
-0.225232 2.8408 0.0
-21.3978 2.84059 0.0
-27.3545 2.84035 0.0
15.501 2.83666 0.0
-4.83023 2.83811 0.0
-5.53788 2.83946 0.0
-6.31067 2.84128 0.0
-6.18336 2.84327 0.0
1.36501 2.84525 0.0
-2.33136 2.84368 0.0
-1.92548 2.84414 0.0
-1.83687 2.8448 0.0
2.06253 2.84505 0.0
2.06252 3.24114 0.0
2.62303 3.24046 0.0
3.04535 3.24006 0.0
3.49813 3.23988 0.0
4.24732 3.24081 0.0
4.07097 3.25228 0.0
6.59154 3.2696 0.0
7.72503 3.09996 0.0
7.10699 3.14348 0.0
6.93818 3.26102 0.0
-9.78139 3.29924 0.0
25.9768 3.24014 0.0
20.7783 3.23631 0.0
-0.224899 3.23639 0.0
-21.3924 3.2363 0.0
-27.2831 3.23798 0.0
14.9321 3.30118 0.0
-4.87652 3.28046 0.0
-5.52684 3.28119 0.0
-6.30214 3.28191 0.0
-6.18516 3.25713 0.0
1.45947 3.26133 0.0
-2.3188 3.24799 0.0
-1.92612 3.2399 0.0
-1.83687 3.24084 0.0
2.06252 3.24114 0.0
2.06247 3.90248 0.0
2.62292 3.90169 0.0
3.04513 3.90129 0.0
3.499 3.90122 0.0
4.23368 3.88629 0.0
3.92142 3.68133 0.0
6.23755 3.61689 0.0
9.17746 -3.50592 0.0
7.34317 -3.75414 0.0
5.99282 2.55045 0.0
-13.2268 2.16855 0.0
26.3608 3.85027 0.0
20.7968 3.89541 0.0
-0.231029 3.89823 0.0
-21.4218 3.89602 0.0
-27.576 3.86724 0.0
18.2397 1.79954 0.0
-3.70391 2.79696 0.0
-4.95034 2.92266 0.0
-5.89229 2.89382 0.0
-4.73741 1.99363 0.0
0.327449 3.3856 0.0
-2.36267 3.77939 0.0
-1.92256 3.90454 0.0
-1.83683 3.90229 0.0
2.06247 3.90248 0.0
2.06214 3.61363 0.0
2.6227 3.61229 0.0
3.04457 3.61388 0.0
3.51253 3.59733 0.0
4.02907 3.42218 0.0
2.73761 2.23987 0.0
3.43857 -7.18114 0.0
7.11575 6.05816 0.0
7.02627 5.89134 0.0
-10.6829 -4.41125 0.0
-6.08319 2.85772 0.0
28.6113 3.50171 0.0
21.2683 3.75819 0.0
0.0924643 3.75525 0.0
-21.1693 3.67725 0.0
-28.8034 2.64797 0.0
5.6969 7.08579 0.0
-7.21408 5.41237 0.0
-3.61806 2.60462 0.0
-2.7243 -6.20259 0.0
-6.80496 4.43066 0.0
3.06794 -1.04198 0.0
-2.18762 2.28146 0.0
-1.91784 3.62585 0.0
-1.83667 3.61683 0.0
2.06214 3.61363 0.0
2.06319 6.02778 0.0
2.62369 6.02767 0.0
3.0443 6.02648 0.0
3.53104 6.03772 0.0
3.68531 5.78255 0.0
-7.59881 4.01765 0.0
7.32927 6.47745 0.0
7.1486 6.49234 0.0
7.20533 6.47354 0.0
8.37377 6.46407 0.0
11.7605 6.45549 0.0
13.6002 6.64633 0.0
19.2386 5.61683 0.0
-1.33268 5.51656 0.0
-22.2443 5.77492 0.0
-18.1696 6.45796 0.0
-11.529 6.45193 0.0
-8.4153 6.46329 0.0
-7.24528 6.47866 0.0
-7.21885 6.49339 0.0
-7.34452 6.45709 0.0
6.98656 5.34076 0.0
-1.95434 5.87891 0.0
-1.94313 6.06225 0.0
-1.83802 6.02493 0.0
2.06319 6.02778 0.0
2.06324 6.26853 0.0
2.62348 6.26672 0.0
3.04224 6.26575 0.0
3.54049 6.26722 0.0
2.02265 6.49093 0.0
6.77314 5.95439 0.0
7.30153 5.97637 0.0
7.14165 6.02565 0.0
7.21941 6.00331 0.0
8.40183 5.9778 0.0
11.7878 5.9587 0.0
16.683 6.06044 0.0
19.6504 4.40949 0.0
-1.63883 3.89428 0.0
-22.697 4.70144 0.0
-18.2084 6.00442 0.0
-11.6005 5.9539 0.0
-8.45593 5.97616 0.0
-7.27845 6.00115 0.0
-7.22528 6.02361 0.0
-7.34075 5.97501 0.0
7.11311 6.53643 0.0
-1.71399 6.29858 0.0
-1.96012 6.2608 0.0
-1.83707 6.26815 0.0
2.06324 6.26853 0.0
2.06235 4.8425 0.0
2.62234 4.83927 0.0
3.04051 4.83743 0.0
3.54595 4.84097 0.0
3.34912 4.66959 0.0
-6.61306 0.751828 0.0
7.29197 5.65624 0.0
7.12871 5.79131 0.0
7.21359 5.75555 0.0
8.39294 5.70457 0.0
11.7928 5.68199 0.0
15.9187 6.72511 0.0
19.7359 1.1764 0.0
-1.01226 -0.270095 0.0
-21.4739 1.84533 0.0
-16.9543 6.33097 0.0
-11.6937 5.65854 0.0
-8.44304 5.70164 0.0
-7.27266 5.74983 0.0
-7.21258 5.7884 0.0
-7.32528 5.66592 0.0
7.03675 3.16934 0.0
-1.63638 4.71963 0.0
-1.96162 4.82229 0.0
-1.83494 4.84234 0.0
2.06235 4.8425 0.0
2.06076 5.09325 0.0
2.62043 5.09025 0.0
3.04141 5.08945 0.0
3.41828 5.04526 0.0
1.38001 4.02277 0.0
-7.20592 -4.53391 0.0
7.26882 6.0505 0.0
7.11294 6.22478 0.0
7.20952 6.1778 0.0
8.38315 6.12116 0.0
11.7595 6.01082 0.0
16.1109 5.89374 0.0
17.3801 -3.48105 0.0
-3.52459 -7.00598 0.0
-22.7205 -1.40274 0.0
-15.846 7.37334 0.0
-11.6397 6.07532 0.0
-8.45507 6.1097 0.0
-7.27652 6.16755 0.0
-7.19765 6.21937 0.0
-7.30494 6.06229 0.0
7.06108 3.22226 0.0
-1.68737 4.99924 0.0
-1.95947 5.07941 0.0
-1.83214 5.09271 0.0
2.06076 5.09325 0.0
2.06292 4.0701 0.0
2.6229 4.07127 0.0
3.04423 4.06965 0.0
3.49767 4.11901 0.0
3.19266 2.46516 0.0
-6.95759 -14.7146 0.0
7.25542 7.30626 0.0
7.10056 7.48472 0.0
7.20694 7.4313 0.0
8.4261 7.38258 0.0
9.95119 4.99061 0.0
3.93532 -9.37907 0.0
-2.48533 -13.9329 0.0
-22.712 -35.0889 0.0
-27.9045 -32.2692 0.0
1.78873 0.459614 0.0
-7.36179 6.51482 0.0
-7.53826 7.36063 0.0
-7.00344 7.46688 0.0
-7.1225 7.51953 0.0
-7.26452 7.35445 0.0
6.82491 -1.22817 0.0
-1.61598 4.112 0.0
-1.96356 4.14606 0.0
-1.83841 4.06365 0.0
2.06292 4.0701 0.0
2.06437 -10.973 0.0
2.62434 -10.9633 0.0
3.04544 -10.9788 0.0
3.51719 -10.5112 0.0
2.93546 -13.6446 0.0
-7.08073 -34.6996 0.0
7.24539 9.23275 0.0
7.0878 9.78643 0.0
7.34904 9.55005 0.0
6.24584 7.41799 0.0
-15.3121 -14.3726 0.0
25.1855 59.1633 0.0
0.0845081 33.4603 0.0
1.82962 38.4128 0.0
-19.8495 39.0849 0.0
63.1994 28.5871 0.0
43.5427 7.55589 0.0
18.8523 8.05768 0.0
-3.46006 9.6088 0.0
-6.97354 9.86718 0.0
-7.2763 9.14006 0.0
6.97908 -25.0002 0.0
-1.29907 -9.85486 0.0
-1.97725 -10.2937 0.0
-1.84319 -11.0227 0.0
2.06437 -10.973 0.0
2.06585 28.7359 0.0
2.62655 28.7218 0.0
3.04916 28.7372 0.0
3.50977 28.238 0.0
4.09606 29.935 0.0
3.71632 39.2469 0.0
8.27943 -6.53226 0.0
6.9126 14.024 0.0
14.8912 -2.98046 0.0
-14.9939 -13.6138 0.0
27.9722 33.4483 0.0
29.2109 37.9403 0.0
22.2762 38.8382 0.0
0.399024 39.3249 0.0
-21.5778 38.8553 0.0
-28.1492 38.059 0.0
23.1942 29.5167 0.0
10.9588 9.17167 0.0
-5.38989 12.8774 0.0
-7.59217 11.9905 0.0
-9.41202 -5.83479 0.0
4.64507 43.7145 0.0
-1.96475 27.3814 0.0
-1.94633 27.9409 0.0
-1.84196 28.7851 0.0
2.06585 28.7359 0.0
2.06106 32.4897 0.0
2.62116 32.4821 0.0
3.04285 32.4791 0.0
3.49564 32.4646 0.0
4.23897 32.5072 0.0
3.86361 36.0025 0.0
6.66254 19.9839 0.0
5.81598 17.0988 0.0
1.06588 17.1053 0.0
-23.0744 2.65166 0.0
29.2183 34.9785 0.0
28.6172 34.9401 0.0
21.7659 35.8285 0.0
0.0762747 36.5549 0.0
-21.646 35.8238 0.0
-28.4485 34.7822 0.0
-22.8099 -10.643 0.0
11.566 20.7254 0.0
-3.24276 16.2541 0.0
-5.78575 17.7755 0.0
-6.30406 19.8773 0.0
3.05189 39.7896 0.0
-2.29596 32.5159 0.0
-1.92086 32.4528 0.0
-1.83258 32.4884 0.0
2.06106 32.4897 0.0
2.05969 20.7878 0.0