# vtk DataFile Version 2.0
Particulate Flow Equations Solution
ASCII
DATASET STRUCTURED_GRID
DIMENSIONS 26 26 1
POINTS 676 double
-10 -10 0
-9.23077 -10 0
-8.46154 -10 0
-7.69231 -10 0
-6.92308 -10 0
-6.15385 -10 0
-5.38462 -10 0
-4.61538 -10 0
-3.84615 -10 0
-3.07692 -10 0
-2.30769 -10 0
-1.53846 -10 0
-0.769231 -10 0
5.55112e-016 -10 0
0.769231 -10 0
1.53846 -10 0
2.30769 -10 0
3.07692 -10 0
3.84615 -10 0
4.61538 -10 0
5.38462 -10 0
6.15385 -10 0
6.92308 -10 0
7.69231 -10 0
8.46154 -10 0
10 -10 0
-10 -9.23077 0
-9.23077 -9.23077 0
-8.46154 -9.23077 0
-7.69231 -9.23077 0
-6.92308 -9.23077 0
-6.15385 -9.23077 0
-5.38462 -9.23077 0
-4.61538 -9.23077 0
-3.84615 -9.23077 0
-3.07692 -9.23077 0
-2.30769 -9.23077 0
-1.53846 -9.23077 0
-0.769231 -9.23077 0
5.55112e-016 -9.23077 0
0.769231 -9.23077 0
1.53846 -9.23077 0
2.30769 -9.23077 0
3.07692 -9.23077 0
3.84615 -9.23077 0
4.61538 -9.23077 0
5.38462 -9.23077 0
6.15385 -9.23077 0
6.92308 -9.23077 0
7.69231 -9.23077 0
8.46154 -9.23077 0
10 -9.23077 0
-10 -8.46154 0
-9.23077 -8.46154 0
-8.46154 -8.46154 0
-7.69231 -8.46154 0
-6.92308 -8.46154 0
-6.15385 -8.46154 0
-5.38462 -8.46154 0
-4.61538 -8.46154 0
-3.84615 -8.46154 0
-3.07692 -8.46154 0
-2.30769 -8.46154 0
-1.53846 -8.46154 0
-0.769231 -8.46154 0
5.55112e-016 -8.46154 0
0.769231 -8.46154 0
1.53846 -8.46154 0
2.30769 -8.46154 0
3.07692 -8.46154 0
3.84615 -8.46154 0
4.61538 -8.46154 0
5.38462 -8.46154 0
6.15385 -8.46154 0
6.92308 -8.46154 0
7.69231 -8.46154 0
8.46154 -8.46154 0
10 -8.46154 0
-10 -7.69231 0
-9.23077 -7.69231 0
-8.46154 -7.69231 0
-7.69231 -7.69231 0
-6.92308 -7.69231 0
-6.15385 -7.69231 0
-5.38462 -7.69231 0
-4.61538 -7.69231 0
-3.84615 -7.69231 0
-3.07692 -7.69231 0
-2.30769 -7.69231 0
-1.53846 -7.69231 0
-0.769231 -7.69231 0
5.55112e-016 -7.69231 0
0.769231 -7.69231 0
1.53846 -7.69231 0
2.30769 -7.69231 0
3.07692 -7.69231 0
3.84615 -7.69231 0
4.61538 -7.69231 0
5.38462 -7.69231 0
6.15385 -7.69231 0
6.92308 -7.69231 0
7.69231 -7.69231 0
8.46154 -7.69231 0
10 -7.69231 0
-10 -6.92308 0
-9.23077 -6.92308 0
-8.46154 -6.92308 0
-7.69231 -6.92308 0
-6.92308 -6.92308 0
-6.15385 -6.92308 0
-5.38462 -6.92308 0
-4.61538 -6.92308 0
-3.84615 -6.92308 0
-3.07692 -6.92308 0
-2.30769 -6.92308 0
-1.53846 -6.92308 0
-0.769231 -6.92308 0
5.55112e-016 -6.92308 0
0.769231 -6.92308 0
1.53846 -6.92308 0
2.30769 -6.92308 0
3.07692 -6.92308 0
3.84615 -6.92308 0
4.61538 -6.92308 0
5.38462 -6.92308 0
6.15385 -6.92308 0
6.92308 -6.92308 0
7.69231 -6.92308 0
8.46154 -6.92308 0
10 -6.92308 0
-10 -6.15385 0
-9.23077 -6.15385 0
-8.46154 -6.15385 0
-7.69231 -6.15385 0
-6.92308 -6.15385 0
-6.15385 -6.15385 0
-5.38462 -6.15385 0
-4.61538 -6.15385 0
-3.84615 -6.15385 0
-3.07692 -6.15385 0
-2.30769 -6.15385 0
-1.53846 -6.15385 0
-0.769231 -6.15385 0
5.55112e-016 -6.15385 0
0.769231 -6.15385 0
1.53846 -6.15385 0
2.30769 -6.15385 0
3.07692 -6.15385 0
3.84615 -6.15385 0
4.61538 -6.15385 0
5.38462 -6.15385 0
6.15385 -6.15385 0
6.92308 -6.15385 0
7.69231 -6.15385 0
8.46154 -6.15385 0
10 -6.15385 0
-10 -5.38462 0
-9.23077 -5.38462 0
-8.46154 -5.38462 0
-7.69231 -5.38462 0
-6.92308 -5.38462 0
-6.15385 -5.38462 0
-5.38462 -5.38462 0
-4.61538 -5.38462 0
-3.84615 -5.38462 0
-3.07692 -5.38462 0
-2.30769 -5.38462 0
-1.53846 -5.38462 0
-0.769231 -5.38462 0
5.55112e-016 -5.38462 0
0.769231 -5.38462 0
1.53846 -5.38462 0
2.30769 -5.38462 0
3.07692 -5.38462 0
3.84615 -5.38462 0
4.61538 -5.38462 0
5.38462 -5.38462 0
6.15385 -5.38462 0
6.92308 -5.38462 0
7.69231 -5.38462 0
8.46154 -5.38462 0
10 -5.38462 0
-10 -4.61538 0
-9.23077 -4.61538 0
-8.46154 -4.61538 0
-7.69231 -4.61538 0
-6.92308 -4.61538 0
-6.15385 -4.61538 0
-5.38462 -4.61538 0
-4.61538 -4.61538 0
-3.84615 -4.61538 0
-3.07692 -4.61538 0
-2.30769 -4.61538 0
-1.53846 -4.61538 0
-0.769231 -4.61538 0
5.55112e-016 -4.61538 0
0.769231 -4.61538 0
1.53846 -4.61538 0
2.30769 -4.61538 0
3.07692 -4.61538 0
3.84615 -4.61538 0
4.61538 -4.61538 0
5.38462 -4.61538 0
6.15385 -4.61538 0
6.92308 -4.61538 0
7.69231 -4.61538 0
8.46154 -4.61538 0
10 -4.61538 0
-10 -3.84615 0
-9.23077 -3.84615 0
-8.46154 -3.84615 0
-7.69231 -3.84615 0
-6.92308 -3.84615 0
-6.15385 -3.84615 0
-5.38462 -3.84615 0
-4.61538 -3.84615 0
-3.84615 -3.84615 0
-3.07692 -3.84615 0
-2.30769 -3.84615 0
-1.53846 -3.84615 0
-0.769231 -3.84615 0
5.55112e-016 -3.84615 0
0.769231 -3.84615 0
1.53846 -3.84615 0
2.30769 -3.84615 0
3.07692 -3.84615 0
3.84615 -3.84615 0
4.61538 -3.84615 0
5.38462 -3.84615 0
6.15385 -3.84615 0
6.92308 -3.84615 0
7.69231 -3.84615 0
8.46154 -3.84615 0
10 -3.84615 0
-10 -3.07692 0
-9.23077 -3.07692 0
-8.46154 -3.07692 0
-7.69231 -3.07692 0
-6.92308 -3.07692 0
-6.15385 -3.07692 0
-5.38462 -3.07692 0
-4.61538 -3.07692 0
-3.84615 -3.07692 0
-3.07692 -3.07692 0
-2.30769 -3.07692 0
-1.53846 -3.07692 0
-0.769231 -3.07692 0
5.55112e-016 -3.07692 0
0.769231 -3.07692 0
1.53846 -3.07692 0
2.30769 -3.07692 0
3.07692 -3.07692 0
3.84615 -3.07692 0
4.61538 -3.07692 0
5.38462 -3.07692 0
6.15385 -3.07692 0
6.92308 -3.07692 0
7.69231 -3.07692 0
8.46154 -3.07692 0
10 -3.07692 0
-10 -2.30769 0
-9.23077 -2.30769 0
-8.46154 -2.30769 0
-7.69231 -2.30769 0
-6.92308 -2.30769 0
-6.15385 -2.30769 0
-5.38462 -2.30769 0
-4.61538 -2.30769 0
-3.84615 -2.30769 0
-3.07692 -2.30769 0
-2.30769 -2.30769 0
-1.53846 -2.30769 0
-0.769231 -2.30769 0
5.55112e-016 -2.30769 0
0.769231 -2.30769 0
1.53846 -2.30769 0
2.30769 -2.30769 0
3.07692 -2.30769 0
3.84615 -2.30769 0
4.61538 -2.30769 0
5.38462 -2.30769 0
6.15385 -2.30769 0
6.92308 -2.30769 0
7.69231 -2.30769 0
8.46154 -2.30769 0
10 -2.30769 0
-10 -1.53846 0
-9.23077 -1.53846 0
-8.46154 -1.53846 0
-7.69231 -1.53846 0
-6.92308 -1.53846 0
-6.15385 -1.53846 0
-5.38462 -1.53846 0
-4.61538 -1.53846 0
-3.84615 -1.53846 0
-3.07692 -1.53846 0
-2.30769 -1.53846 0
-1.53846 -1.53846 0
-0.769231 -1.53846 0
5.55112e-016 -1.53846 0
0.769231 -1.53846 0
1.53846 -1.53846 0
2.30769 -1.53846 0
3.07692 -1.53846 0
3.84615 -1.53846 0
4.61538 -1.53846 0
5.38462 -1.53846 0
6.15385 -1.53846 0
6.92308 -1.53846 0
7.69231 -1.53846 0
8.46154 -1.53846 0
10 -1.53846 0
-10 -0.769231 0
-9.23077 -0.769231 0
-8.46154 -0.769231 0
-7.69231 -0.769231 0
-6.92308 -0.769231 0
-6.15385 -0.769231 0
-5.38462 -0.769231 0
-4.61538 -0.769231 0
-3.84615 -0.769231 0
-3.07692 -0.769231 0
-2.30769 -0.769231 0
-1.53846 -0.769231 0
-0.769231 -0.769231 0
5.55112e-016 -0.769231 0
0.769231 -0.769231 0
1.53846 -0.769231 0
2.30769 -0.769231 0
3.07692 -0.769231 0
3.84615 -0.769231 0
4.61538 -0.769231 0
5.38462 -0.769231 0
6.15385 -0.769231 0
6.92308 -0.769231 0
7.69231 -0.769231 0
8.46154 -0.769231 0
10 -0.769231 0
-10 5.55112e-016 0
-9.23077 5.55112e-016 0
-8.46154 5.55112e-016 0
-7.69231 5.55112e-016 0
-6.92308 5.55112e-016 0
-6.15385 5.55112e-016 0
-5.38462 5.55112e-016 0
-4.61538 5.55112e-016 0
-3.84615 5.55112e-016 0
-3.07692 5.55112e-016 0
-2.30769 5.55112e-016 0
-1.53846 5.55112e-016 0
-0.769231 5.55112e-016 0
5.55112e-016 5.55112e-016 0
0.769231 5.55112e-016 0
1.53846 5.55112e-016 0
2.30769 5.55112e-016 0
3.07692 5.55112e-016 0
3.84615 5.55112e-016 0
4.61538 5.55112e-016 0
5.38462 5.55112e-016 0
6.15385 5.55112e-016 0
6.92308 5.55112e-016 0
7.69231 5.55112e-016 0
8.46154 5.55112e-016 0
10 5.55112e-016 0
-10 0.769231 0
-9.23077 0.769231 0
-8.46154 0.769231 0
-7.69231 0.769231 0
-6.92308 0.769231 0
-6.15385 0.769231 0
-5.38462 0.769231 0
-4.61538 0.769231 0
-3.84615 0.769231 0
-3.07692 0.769231 0
-2.30769 0.769231 0
-1.53846 0.769231 0
-0.769231 0.769231 0
5.55112e-016 0.769231 0
0.769231 0.769231 0
1.53846 0.769231 0
2.30769 0.769231 0
3.07692 0.769231 0
3.84615 0.769231 0
4.61538 0.769231 0
5.38462 0.769231 0
6.15385 0.769231 0
6.92308 0.769231 0
7.69231 0.769231 0
8.46154 0.769231 0
10 0.769231 0
-10 1.53846 0
-9.23077 1.53846 0
-8.46154 1.53846 0
-7.69231 1.53846 0
-6.92308 1.53846 0
-6.15385 1.53846 0
-5.38462 1.53846 0
-4.61538 1.53846 0
-3.84615 1.53846 0
-3.07692 1.53846 0
-2.30769 1.53846 0
-1.53846 1.53846 0
-0.769231 1.53846 0
5.55112e-016 1.53846 0
0.769231 1.53846 0
1.53846 1.53846 0
2.30769 1.53846 0
3.07692 1.53846 0
3.84615 1.53846 0
4.61538 1.53846 0
5.38462 1.53846 0
6.15385 1.53846 0
6.92308 1.53846 0
7.69231 1.53846 0
8.46154 1.53846 0
10 1.53846 0
-10 2.30769 0
-9.23077 2.30769 0
-8.46154 2.30769 0
-7.69231 2.30769 0
-6.92308 2.30769 0
-6.15385 2.30769 0
-5.38462 2.30769 0
-4.61538 2.30769 0
-3.84615 2.30769 0
-3.07692 2.30769 0
-2.30769 2.30769 0
-1.53846 2.30769 0
-0.769231 2.30769 0
5.55112e-016 2.30769 0
0.769231 2.30769 0
1.53846 2.30769 0
2.30769 2.30769 0
3.07692 2.30769 0
3.84615 2.30769 0
4.61538 2.30769 0
5.38462 2.30769 0
6.15385 2.30769 0
6.92308 2.30769 0
7.69231 2.30769 0
8.46154 2.30769 0
10 2.30769 0
-10 3.07692 0
-9.23077 3.07692 0
-8.46154 3.07692 0
-7.69231 3.07692 0
-6.92308 3.07692 0
-6.15385 3.07692 0
-5.38462 3.07692 0
-4.61538 3.07692 0
-3.84615 3.07692 0
-3.07692 3.07692 0
-2.30769 3.07692 0
-1.53846 3.07692 0
-0.769231 3.07692 0
5.55112e-016 3.07692 0
0.769231 3.07692 0
1.53846 3.07692 0
2.30769 3.07692 0
3.07692 3.07692 0
3.84615 3.07692 0
4.61538 3.07692 0
5.38462 3.07692 0
6.15385 3.07692 0
6.92308 3.07692 0
7.69231 3.07692 0
8.46154 3.07692 0
10 3.07692 0
-10 3.84615 0
-9.23077 3.84615 0
-8.46154 3.84615 0
-7.69231 3.84615 0
-6.92308 3.84615 0
-6.15385 3.84615 0
-5.38462 3.84615 0
-4.61538 3.84615 0
-3.84615 3.84615 0
-3.07692 3.84615 0
-2.30769 3.84615 0
-1.53846 3.84615 0
-0.769231 3.84615 0
5.55112e-016 3.84615 0
0.769231 3.84615 0
1.53846 3.84615 0
2.30769 3.84615 0
3.07692 3.84615 0
3.84615 3.84615 0
4.61538 3.84615 0
5.38462 3.84615 0
6.15385 3.84615 0
6.92308 3.84615 0
7.69231 3.84615 0
8.46154 3.84615 0
10 3.84615 0
-10 4.61538 0
-9.23077 4.61538 0
-8.46154 4.61538 0
-7.69231 4.61538 0
-6.92308 4.61538 0
-6.15385 4.61538 0
-5.38462 4.61538 0
-4.61538 4.61538 0
-3.84615 4.61538 0
-3.07692 4.61538 0
-2.30769 4.61538 0
-1.53846 4.61538 0
-0.769231 4.61538 0
5.55112e-016 4.61538 0
0.769231 4.61538 0
1.53846 4.61538 0
2.30769 4.61538 0
3.07692 4.61538 0
3.84615 4.61538 0
4.61538 4.61538 0
5.38462 4.61538 0
6.15385 4.61538 0
6.92308 4.61538 0
7.69231 4.61538 0
8.46154 4.61538 0
10 4.61538 0
-10 5.38462 0
-9.23077 5.38462 0
-8.46154 5.38462 0
-7.69231 5.38462 0
-6.92308 5.38462 0
-6.15385 5.38462 0
-5.38462 5.38462 0
-4.61538 5.38462 0
-3.84615 5.38462 0
-3.07692 5.38462 0
-2.30769 5.38462 0
-1.53846 5.38462 0
-0.769231 5.38462 0
5.55112e-016 5.38462 0
0.769231 5.38462 0
1.53846 5.38462 0
2.30769 5.38462 0
3.07692 5.38462 0
3.84615 5.38462 0
4.61538 5.38462 0
5.38462 5.38462 0
6.15385 5.38462 0
6.92308 5.38462 0
7.69231 5.38462 0
8.46154 5.38462 0
10 5.38462 0
-10 6.15385 0
-9.23077 6.15385 0
-8.46154 6.15385 0
-7.69231 6.15385 0
-6.92308 6.15385 0
-6.15385 6.15385 0
-5.38462 6.15385 0
-4.61538 6.15385 0
-3.84615 6.15385 0
-3.07692 6.15385 0
-2.30769 6.15385 0
-1.53846 6.15385 0
-0.769231 6.15385 0
5.55112e-016 6.15385 0
0.769231 6.15385 0
1.53846 6.15385 0
2.30769 6.15385 0
3.07692 6.15385 0
3.84615 6.15385 0
4.61538 6.15385 0
5.38462 6.15385 0
6.15385 6.15385 0
6.92308 6.15385 0
7.69231 6.15385 0
8.46154 6.15385 0
10 6.15385 0
-10 6.92308 0
-9.23077 6.92308 0
-8.46154 6.92308 0
-7.69231 6.92308 0
-6.92308 6.92308 0
-6.15385 6.92308 0
-5.38462 6.92308 0
-4.61538 6.92308 0
-3.84615 6.92308 0
-3.07692 6.92308 0
-2.30769 6.92308 0
-1.53846 6.92308 0
-0.769231 6.92308 0
5.55112e-016 6.92308 0
0.769231 6.92308 0
1.53846 6.92308 0
2.30769 6.92308 0
3.07692 6.92308 0
3.84615 6.92308 0
4.61538 6.92308 0
5.38462 6.92308 0
6.15385 6.92308 0
6.92308 6.92308 0
7.69231 6.92308 0
8.46154 6.92308 0
10 6.92308 0
-10 7.69231 0
-9.23077 7.69231 0
-8.46154 7.69231 0
-7.69231 7.69231 0
-6.92308 7.69231 0
-6.15385 7.69231 0
-5.38462 7.69231 0
-4.61538 7.69231 0
-3.84615 7.69231 0
-3.07692 7.69231 0
-2.30769 7.69231 0
-1.53846 7.69231 0
-0.769231 7.69231 0
5.55112e-016 7.69231 0
0.769231 7.69231 0
1.53846 7.69231 0
2.30769 7.69231 0
3.07692 7.69231 0
3.84615 7.69231 0
4.61538 7.69231 0
5.38462 7.69231 0
6.15385 7.69231 0
6.92308 7.69231 0
7.69231 7.69231 0
8.46154 7.69231 0
10 7.69231 0
-10 8.46154 0
-9.23077 8.46154 0
-8.46154 8.46154 0
-7.69231 8.46154 0
-6.92308 8.46154 0
-6.15385 8.46154 0
-5.38462 8.46154 0
-4.61538 8.46154 0
-3.84615 8.46154 0
-3.07692 8.46154 0
-2.30769 8.46154 0
-1.53846 8.46154 0
-0.769231 8.46154 0
5.55112e-016 8.46154 0
0.769231 8.46154 0
1.53846 8.46154 0
2.30769 8.46154 0
3.07692 8.46154 0
3.84615 8.46154 0
4.61538 8.46154 0
5.38462 8.46154 0
6.15385 8.46154 0
6.92308 8.46154 0
7.69231 8.46154 0
8.46154 8.46154 0
10 8.46154 0
-10 10 0
-9.23077 10 0
-8.46154 10 0
-7.69231 10 0
-6.92308 10 0
-6.15385 10 0
-5.38462 10 0
-4.61538 10 0
-3.84615 10 0
-3.07692 10 0
-2.30769 10 0
-1.53846 10 0
-0.769231 10 0
5.55112e-016 10 0
0.769231 10 0
1.53846 10 0
2.30769 10 0
3.07692 10 0
3.84615 10 0
4.61538 10 0
5.38462 10 0
6.15385 10 0
6.92308 10 0
7.69231 10 0
8.46154 10 0
10 10 0

POINT_DATA 676
SCALARS h double 1
LOOkUP_TABLE default
0.0173458
0.0198408
0.0236406
0.0288204
0.0350268
0.0414297
0.0468731
0.0502481
0.0509082
0.0488935
0.044851
0.0397286
0.0344338
0.0296129
0.0255926
0.0224394
0.0200629
0.0183114
0.0170345
0.0161145
0.0154762
0.0150872
0.0149622
0.015175
0.0158826
0.0173458
0.0199153
0.0208813
0.0225171
0.0249562
0.0281311
0.0317218
0.0351564
0.0377586
0.038986
0.0386373
0.0369111
0.0342946
0.0313593
0.0285772
0.0262269
0.0243943
0.0230306
0.0220248
0.0212619
0.020656
0.0201599
0.0197615
0.0194763
0.0193472
0.0194489
0.0199153
0.0246578
0.0245155
0.0246437
0.0251699
0.0261316
0.0274609
0.0289436
0.0302591
0.031088
0.0312417
0.0307413
0.0298008
0.0287288
0.0278043
0.0271902
0.026908
0.026869
0.0269331
0.0269679
0.0268869
0.0266613
0.0263086
0.025873
0.0254085
0.0249751
0.0246578
0.0316795
0.0304827
0.0293056
0.0282776
0.0274809
0.0269701
0.026726
0.026656
0.0266368
0.0265821
0.0264999
0.0265023
0.0267601
0.0274208
0.0285345
0.0300184
0.0316743
0.0332485
0.0345076
0.0352983
0.0355712
0.0353655
0.0347717
0.0338939
0.0328285
0.0316795
0.0414937
0.0390351
0.0364276
0.0338372
0.0313859
0.0291994
0.0273639
0.0259156
0.0248583
0.024202
0.0240022
0.0243743
0.0254668
0.0273952
0.030163
0.0336043
0.0373812
0.0410473
0.0441584
0.046383
0.047567
0.0477307
0.047015
0.045611
0.0437085
0.0414937
0.054956
0.0508173
0.0463913
0.041934
0.03763
0.0336664
0.0301922
0.027309
0.0250846
0.0235844
0.0229085
0.0232131
0.0246963
0.0275375
0.0317976
0.037314
0.0436452
0.0501122
0.0559442
0.0604724
0.0632857
0.0642846
0.0636283
0.061623
0.0586163
0.054956
0.0732331
0.0668152
0.0599462
0.0530513
0.0464236
0.0403279
0.0349615
0.0304528
0.0268833
0.0243265
0.0228934
0.0227704
0.0242258
0.0275641
0.0330114
0.0405463
0.0497465
0.0597469
0.0693773
0.0774471
0.0830544
0.0857767
0.0856777
0.0831665
0.0788131
0.0732331
0.0977136
0.0882973
0.0781519
0.0679933
0.0583041
0.04947
0.0417429
0.0352558
0.0300638
0.0262003
0.0237408
0.0228605
0.0238719
0.027213
0.0333455
0.0425413
0.0546028
0.0686572
0.0831854
0.0963404
0.106439
0.112399
0.113924
0.111408
0.105669
0.0977136
0.129754
0.116652
0.10227
0.0878008
0.0740545
0.0616208
0.0508399
0.0418436
0.0346277
0.0291396
0.0253651
0.0234105
0.0235707
0.026365
0.032489
0.0426096
0.0569883
0.075059
0.095211
0.114987
0.131689
0.143133
0.148195
0.146925
0.140282
0.129754
0.170135
0.153011
0.133509
0.11358
0.0945792
0.0774504
0.0627004
0.0504787
0.0407027
0.0331905
0.0277836
0.0244534
0.0233962
0.0251141
0.030444
0.0404345
0.0559645
0.0771395
0.10273
0.130031
0.155357
0.17505
0.186521
0.188853
0.182758
0.170135
0.21816
0.197548
0.172533
0.146165
0.120676
0.0976137
0.0778005
0.0614707
0.0484675
0.0384487
0.0310612
0.0260784
0.0235154
0.0237397
0.0275713
0.036286
0.0513534
0.0737934
0.103308
0.137631
0.172588
0.203043
0.224388
0.233872
0.231171
0.21816
0.270549
0.248498
0.218675
0.185552
0.152653
0.122494
0.0964754
0.0750592
0.0580679
0.0449936
0.0352522
0.0283672
0.0241044
0.0225939
0.0244686
0.0309836
0.0439549
0.0652723
0.0959252
0.134878
0.17843
0.220627
0.254801
0.275604
0.280555
0.270549
0.320679
0.301177
0.269024
0.230164
0.189787
0.151839
0.118683
0.0912655
0.0695226
0.0528251
0.0403508
0.0313422
0.0252715
0.0219646
0.0217408
0.0255914
0.0353064
0.0532816
0.0817241
0.121324
0.169935
0.222078
0.269875
0.305298
0.322719
0.320679
0.359058
0.347707
0.31779
0.276165
0.229756
0.184343
0.143725
0.109719
0.0826219
0.0618073
0.0462597
0.0349425
0.0270193
0.0219867
0.0197944
0.0210171
0.0270798
0.0403544
0.0637555
0.0995938
0.147927
0.20516
0.263858
0.314364
0.347775
0.359058
0.375724
0.378251
0.356638
0.317292
0.268292
0.217313
0.169997
0.129496
0.0968336
0.0716226
0.0527749
0.0390263
0.0292525
0.0226336
0.0187564
0.0177443
0.0204757
0.0288432
0.0457598
0.0744826
0.117124
0.172779
0.236199
0.2981
0.347541
0.375724
0.364134
0.384009
0.376529
0.345731
0.299446
0.24665
0.194882
0.149016
0.111237
0.0817395
0.0595793
0.0433866
0.0318138
0.0237693
0.0185268
0.0158103
0.0159478
0.0201384
0.0307115
0.0509779
0.0842634
0.132152
0.192531
0.258534
0.319472
0.364134
0.324625
0.361005
0.370852
0.354207
0.31675
0.267369
0.214932
0.166081
0.124516
0.0914003
0.0662421
0.047765
0.0345182
0.0252171
0.0188943
0.0149668
0.0133202
0.0144935
0.019982
0.0324455
0.0553617
0.0918084
0.142558
0.204223
0.268635
0.324625
0.265091
0.312527
0.33852
0.338752
0.315169
0.274763
0.226449
0.178123
0.135043
0.0996427
0.0722199
0.051855
0.0371709
0.0268052
0.0196383
0.0148793
0.0121102
0.0113798
0.0134183
0.0199464
0.0337837
0.0583021
0.0960408
0.146802
0.206072
0.265091
0.198051
0.248434
0.285156
0.300793
0.293181
0.265951
0.226444
0.1827
0.141096
0.105377
0.0768749
0.0552998
0.0395653
0.0283808
0.0205804
0.0152601
0.0118215
0.0100086
0.0100164
0.0127225
0.0199633
0.0345157
0.0593885
0.096381
0.144332
0.198051
0.135773
0.181426
0.221341
0.247221
0.25388
0.241212
0.213707
0.178185
0.141234
0.107552
0.0795313
0.0577021
0.0414763
0.0298026
0.0215892
0.0159122
0.0120901
0.00970562
0.0086459
0.00922229
0.012397
0.0199939
0.0345521
0.0585251
0.0928977
0.135773
0.0863014
0.122421
0.158726
0.188113
0.204304
0.204349
0.189546
0.164441
0.134747
0.105407
0.0795935
0.0586659
0.0426664
0.030932
0.0225666
0.016719
0.0127041
0.0100411
0.00846758
0.00798652
0.0089887
0.01245
0.0200569
0.033959
0.0559554
0.0863014
0.0521981
0.0775426
0.106165
0.133223
0.153131
0.161693
0.157706
0.143154
0.122052
0.0987679
0.0767217
0.0578839
0.0429204
0.0316388
0.0234373
0.0176205
0.0135683
0.0108038
0.00901115
0.00805162
0.00801466
0.00933059
0.0129199
0.0202319
0.0329386
0.0521981
0.0317703
0.0477775
0.0677563
0.0891002
0.107865
0.120096
0.123346
0.117548
0.104791
0.0882542
0.071011
0.0552551
0.042109
0.0318294
0.0241529
0.0185991
0.0146675
0.0119343
0.0100884
0.00894213
0.00844956
0.00875701
0.0102949
0.0138702
0.0206341
0.0317703
0.0213794
0.0306494
0.043216
0.0580501
0.0729031
0.0848837
0.0914759
0.091504
0.0854893
0.0752517
0.0630846
0.0509878
0.0402641
0.0314916
0.0247147
0.0196851
0.016053
0.0134816
0.0117006
0.0105238
0.0098579
0.00972128
0.0102882
0.0119527
0.0153696
0.0213794
0.0174035
0.022412
0.0296487
0.0388954
0.0491296
0.0586401
0.0655194
0.0683652
0.0668015
0.061532
0.0539468
0.0455598
0.0375701
0.0306831
0.025152
0.0209254
0.0178026
0.0155466
0.0139473
0.0128475
0.0121516
0.0118312
0.0119433
0.0126623
0.014319
0.0174035
0.0173458
0.0198408
0.0236406
0.0288204
0.0350268
0.0414297
0.0468731
0.0502481
0.0509082
0.0488935
0.044851
0.0397286
0.0344338
0.0296129
0.0255926
0.0224394
0.0200629
0.0183114
0.0170345
0.0161145
0.0154762
0.0150872
0.0149622
0.015175
0.0158826
0.0173458

VECTORS u double
-145.725 143.178 0.0
-147.825 141.801 0.0
-150.271 140.369 0.0
-152.926 139.165 0.0
-155.531 138.276 0.0
-157.889 137.657 0.0
-159.881 137.205 0.0
-161.44 136.822 0.0
-162.52 136.442 0.0
-163.086 136.047 0.0
-163.105 135.665 0.0
-162.557 135.367 0.0
-161.447 135.262 0.0
-159.83 135.459 0.0
-157.825 136.037 0.0
-155.599 136.998 0.0
-153.337 138.261 0.0
-151.195 139.686 0.0
-149.279 141.121 0.0
-147.648 142.434 0.0
-146.336 143.52 0.0
-145.371 144.3 0.0
-144.789 144.703 0.0
-144.64 144.658 0.0
-145.001 144.134 0.0
-145.725 143.178 0.0
-146.588 146.362 0.0
-148.011 145.098 0.0
-149.705 143.399 0.0
-151.694 141.667 0.0
-153.821 140.11 0.0
-155.894 138.847 0.0
-157.745 137.882 0.0
-159.251 137.153 0.0
-160.327 136.589 0.0
-160.907 136.155 0.0
-160.947 135.865 0.0
-160.425 135.784 0.0
-159.364 136.007 0.0
-157.85 136.621 0.0
-156.036 137.652 0.0
-154.111 139.036 0.0
-152.245 140.633 0.0
-150.558 142.278 0.0
-149.108 143.824 0.0
-147.918 145.167 0.0
-146.997 146.238 0.0
-146.357 146.998 0.0
-146.019 147.415 0.0
-146.011 147.458 0.0
-146.331 147.1 0.0
-146.588 146.362 0.0
-148.294 149.044 0.0
-149.339 147.972 0.0
-150.526 146.375 0.0
-151.93 144.54 0.0
-153.469 142.646 0.0
-155.031 140.877 0.0
-156.492 139.366 0.0
-157.725 138.162 0.0
-158.62 137.259 0.0
-159.085 136.646 0.0
-159.056 136.341 0.0
-158.508 136.402 0.0
-157.481 136.905 0.0
-156.092 137.892 0.0
-154.519 139.318 0.0
-152.949 141.048 0.0
-151.519 142.896 0.0
-150.298 144.69 0.0
-149.304 146.302 0.0
-148.53 147.655 0.0
-147.976 148.712 0.0
-147.647 149.452 0.0
-147.561 149.867 0.0
-147.727 149.94 0.0
-148.13 149.659 0.0
-148.294 149.044 0.0
-150.233 151.287 0.0
-151.152 150.335 0.0
-152.103 148.912 0.0
-153.173 147.18 0.0
-154.295 145.251 0.0
-155.394 143.268 0.0
-156.394 141.388 0.0
-157.214 139.749 0.0
-157.767 138.443 0.0
-157.967 137.535 0.0
-157.746 137.09 0.0
-157.084 137.183 0.0
-156.04 137.875 0.0
-154.761 139.152 0.0
-153.434 140.891 0.0
-152.221 142.885 0.0
-151.212 144.917 0.0
-150.427 146.818 0.0
-149.847 148.481 0.0
-149.45 149.853 0.0
-149.224 150.91 0.0
-149.171 151.644 0.0
-149.303 152.051 0.0
-149.62 152.122 0.0
-150.085 151.854 0.0
-150.233 151.287 0.0
-152.26 153.186 0.0
-153.145 152.307 0.0
-154.001 151.015 0.0
-154.912 149.408 0.0
-155.811 147.557 0.0
-156.623 145.554 0.0
-157.279 143.521 0.0
-157.723 141.602 0.0
-157.9 139.946 0.0
-157.751 138.701 0.0
-157.234 138.012 0.0
-156.358 138.013 0.0
-155.215 138.773 0.0
-153.982 140.236 0.0
-152.847 142.201 0.0
-151.938 144.396 0.0
-151.292 146.576 0.0
-150.883 148.574 0.0
-150.663 150.298 0.0
-150.592 151.709 0.0
-150.651 152.79 0.0
-150.834 153.536 0.0
-151.147 153.943 0.0
-151.584 154.007 0.0
-152.109 153.732 0.0
-152.26 153.186 0.0
-154.311 154.786 0.0
-155.194 153.964 0.0
-156.012 152.762 0.0
-156.848 151.251 0.0
-157.639 149.484 0.0
-158.303 147.526 0.0
-158.765 145.459 0.0
-158.965 143.4 0.0
-158.852 141.498 0.0
-158.385 139.94 0.0
-157.548 138.947 0.0
-156.387 138.736 0.0
-155.05 139.434 0.0
-153.759 140.976 0.0
-152.719 143.096 0.0
-152.025 145.456 0.0
-151.661 147.775 0.0
-151.558 149.881 0.0
-151.639 151.69 0.0
-151.847 153.167 0.0
-152.15 154.299 0.0
-152.537 155.079 0.0
-153.006 155.507 0.0
-153.551 155.579 0.0
-154.137 155.31 0.0
-154.311 154.786 0.0
-156.334 156.092 0.0
-157.23 155.33 0.0
-158.035 154.201 0.0
-158.834 152.762 0.0
-159.57 151.061 0.0
-160.161 149.15 0.0
-160.528 147.09 0.0
-160.602 144.968 0.0
-160.322 142.906 0.0
-159.64 141.087 0.0
-158.54 139.767 0.0
-157.087 139.245 0.0
-155.48 139.749 0.0
-154.017 141.259 0.0
-152.949 143.473 0.0
-152.361 145.978 0.0
-152.192 148.444 0.0
-152.325 150.68 0.0
-152.652 152.6 0.0
-153.097 154.171 0.0
-153.614 155.382 0.0
-154.185 156.226 0.0
-154.802 156.703 0.0
-155.457 156.812 0.0
-156.118 156.573 0.0
-156.334 156.092 0.0
-158.275 157.077 0.0
-159.197 156.391 0.0
-160.005 155.335 0.0
-160.788 153.961 0.0
-161.495 152.315 0.0
-162.049 150.444 0.0
-162.373 148.4 0.0
-162.394 146.248 0.0
-162.045 144.083 0.0
-161.261 142.059 0.0
-160.001 140.42 0.0
-158.31 139.517 0.0
-156.405 139.693 0.0
-154.665 141.045 0.0
-153.434 143.282 0.0
-152.831 145.916 0.0
-152.763 148.541 0.0
-153.065 150.928 0.0
-153.591 152.984 0.0
-154.24 154.675 0.0
-154.953 155.993 0.0
-155.7 156.931 0.0
-156.468 157.488 0.0
-157.245 157.666 0.0
-157.999 157.489 0.0
-158.275 157.077 0.0
-160.082 157.701 0.0
-161.044 157.113 0.0
-161.869 156.144 0.0
-162.651 154.84 0.0
-163.346 153.249 0.0
-163.883 151.417 0.0
-164.189 149.392 0.0
-164.198 147.228 0.0
-163.839 144.999 0.0
-163.042 142.822 0.0
-161.735 140.905 0.0
-159.909 139.591 0.0
-157.738 139.32 0.0
-155.646 140.36 0.0
-154.114 142.52 0.0
-153.36 145.253 0.0
-153.291 148.044 0.0
-153.693 150.603 0.0
-154.371 152.815 0.0
-155.197 154.648 0.0
-156.092 156.096 0.0
-157.014 157.154 0.0
-157.942 157.822 0.0
-158.859 158.101 0.0
-159.726 158.016 0.0
-160.082 157.701 0.0
-161.702 157.924 0.0
-162.72 157.458 0.0
-163.578 156.593 0.0
-164.373 155.375 0.0
-165.07 153.849 0.0
-165.604 152.063 0.0
-165.909 150.065 0.0
-165.925 147.903 0.0
-165.59 145.639 0.0
-164.835 143.36 0.0
-163.574 141.224 0.0
-161.739 139.525 0.0
-159.403 138.729 0.0
-156.95 139.29 0.0
-154.99 141.225 0.0
-153.926 143.996 0.0
-153.734 146.953 0.0
-154.156 149.701 0.0
-154.94 152.089 0.0
-155.914 154.081 0.0
-156.978 155.675 0.0
-158.074 156.874 0.0
-159.171 157.677 0.0
-160.244 158.083 0.0
-161.245 158.116 0.0
-161.702 157.924 0.0
-163.087 157.714 0.0
-164.18 157.393 0.0
-165.086 156.655 0.0
-165.911 155.541 0.0
-166.623 154.097 0.0
-167.166 152.371 0.0
-167.483 150.412 0.0
-167.518 148.269 0.0
-167.222 145.994 0.0
-166.536 143.658 0.0
-165.378 141.373 0.0
-163.646 139.36 0.0
-161.299 138.037 0.0
-158.575 137.973 0.0
-156.113 139.481 0.0
-154.57 142.175 0.0
-154.099 145.282 0.0
-154.44 148.239 0.0
-155.27 150.821 0.0
-156.36 152.985 0.0
-157.575 154.738 0.0
-158.84 156.089 0.0
-160.11 157.041 0.0
-161.35 157.591 0.0
-162.503 157.764 0.0
-163.087 157.714 0.0
-164.189 157.066 0.0
-165.378 156.906 0.0
-166.354 156.316 0.0
-167.225 155.329 0.0
-167.968 153.987 0.0
-168.535 152.34 0.0
-168.873 150.438 0.0
-168.936 148.33 0.0
-168.685 146.069 0.0
-168.074 143.712 0.0
-167.04 141.342 0.0
-165.478 139.111 0.0
-163.273 137.338 0.0
-160.467 136.585 0.0
-157.553 137.437 0.0
-155.382 139.857 0.0
-154.439 143.055 0.0
-154.564 146.238 0.0
-155.363 149.043 0.0
-156.524 151.396 0.0
-157.864 153.315 0.0
-159.285 154.823 0.0
-160.725 155.93 0.0
-162.138 156.633 0.0
-163.456 156.957 0.0
-164.189 157.066 0.0
-164.969 155.996 0.0
-166.278 156.01 0.0
-167.346 155.586 0.0
-168.283 154.746 0.0
-169.075 153.529 0.0
-169.68 151.984 0.0
-170.052 150.16 0.0
-170.152 148.109 0.0
-169.948 145.883 0.0
-169.408 143.535 0.0
-168.49 141.132 0.0
-167.111 138.777 0.0
-165.14 136.683 0.0
-162.47 135.299 0.0
-159.315 135.322 0.0
-156.483 137.175 0.0
-154.859 140.315 0.0
-154.582 143.725 0.0
-155.239 146.792 0.0
-156.411 149.362 0.0
-157.843 151.458 0.0
-159.397 153.124 0.0
-160.994 154.385 0.0
-162.576 155.244 0.0
-164.067 155.725 0.0
-164.969 155.996 0.0
-165.395 154.552 0.0
-166.846 154.742 0.0
-168.031 154.495 0.0
-169.058 153.822 0.0
-169.919 152.754 0.0
-170.578 151.334 0.0
-170.999 149.612 0.0
-171.146 147.641 0.0
-170.992 145.474 0.0
-170.517 143.164 0.0
-169.695 140.769 0.0
-168.473 138.364 0.0
-166.744 136.084 0.0
-164.354 134.231 0.0
-161.258 133.412 0.0
-157.946 134.382 0.0
-155.499 137.163 0.0
-154.582 140.73 0.0
-154.941 144.103 0.0
-156.043 146.935 0.0
-157.52 149.23 0.0
-159.177 151.06 0.0
-160.911 152.473 0.0
-162.65 153.484 0.0
-164.309 154.119 0.0
-165.395 154.552 0.0
-165.449 152.801 0.0
-167.058 153.162 0.0
-168.383 153.097 0.0
-169.525 152.605 0.0
-170.477 151.706 0.0
-171.211 150.437 0.0
-171.696 148.843 0.0
-171.901 146.978 0.0
-171.804 144.895 0.0
-171.39 142.649 0.0
-170.644 140.296 0.0
-169.539 137.896 0.0
-168.005 135.542 0.0
-165.911 133.414 0.0
-163.099 131.931 0.0
-159.674 131.86 0.0
-156.486 133.837 0.0
-154.696 137.315 0.0
-154.534 140.998 0.0
-155.447 144.159 0.0
-156.911 146.698 0.0
-158.637 148.707 0.0
-160.482 150.272 0.0
-162.358 151.429 0.0
-164.174 152.215 0.0
-165.449 152.801 0.0
-165.124 150.823 0.0
-166.902 151.342 0.0
-168.385 151.456 0.0
-169.663 151.153 0.0
-170.73 150.439 0.0
-171.561 149.342 0.0
-172.127 147.904 0.0
-172.405 146.172 0.0
-172.373 144.202 0.0
-172.02 142.047 0.0
-171.338 139.765 0.0
-170.313 137.414 0.0
-168.909 135.064 0.0
-167.041 132.828 0.0
-164.56 130.951 0.0
-161.358 129.985 0.0
-157.797 130.796 0.0
-155.067 133.676 0.0
-154.111 137.515 0.0
-154.66 141.06 0.0
-156.034 143.912 0.0
-157.791 146.137 0.0
-159.72 147.864 0.0
-161.71 149.165 0.0
-163.665 150.095 0.0
-165.124 150.823 0.0
-164.429 148.697 0.0
-166.377 149.357 0.0
-168.029 149.641 0.0
-169.461 149.525 0.0
-170.662 149.007 0.0
-171.61 148.101 0.0
-172.277 146.841 0.0