# vtk DataFile Version 2.0
Particulate Flow Equations Solution
ASCII
DATASET STRUCTURED_GRID
DIMENSIONS 26 26 1
POINTS 676 double
-10 -10 0
-9.23077 -10 0
-8.46154 -10 0
-7.69231 -10 0
-6.92308 -10 0
-6.15385 -10 0
-5.38462 -10 0
-4.61538 -10 0
-3.84615 -10 0
-3.07692 -10 0
-2.30769 -10 0
-1.53846 -10 0
-0.769231 -10 0
5.55112e-016 -10 0
0.769231 -10 0
1.53846 -10 0
2.30769 -10 0
3.07692 -10 0
3.84615 -10 0
4.61538 -10 0
5.38462 -10 0
6.15385 -10 0
6.92308 -10 0
7.69231 -10 0
8.46154 -10 0
10 -10 0
-10 -9.23077 0
-9.23077 -9.23077 0
-8.46154 -9.23077 0
-7.69231 -9.23077 0
-6.92308 -9.23077 0
-6.15385 -9.23077 0
-5.38462 -9.23077 0
-4.61538 -9.23077 0
-3.84615 -9.23077 0
-3.07692 -9.23077 0
-2.30769 -9.23077 0
-1.53846 -9.23077 0
-0.769231 -9.23077 0
5.55112e-016 -9.23077 0
0.769231 -9.23077 0
1.53846 -9.23077 0
2.30769 -9.23077 0
3.07692 -9.23077 0
3.84615 -9.23077 0
4.61538 -9.23077 0
5.38462 -9.23077 0
6.15385 -9.23077 0
6.92308 -9.23077 0
7.69231 -9.23077 0
8.46154 -9.23077 0
10 -9.23077 0
-10 -8.46154 0
-9.23077 -8.46154 0
-8.46154 -8.46154 0
-7.69231 -8.46154 0
-6.92308 -8.46154 0
-6.15385 -8.46154 0
-5.38462 -8.46154 0
-4.61538 -8.46154 0
-3.84615 -8.46154 0
-3.07692 -8.46154 0
-2.30769 -8.46154 0
-1.53846 -8.46154 0
-0.769231 -8.46154 0
5.55112e-016 -8.46154 0
0.769231 -8.46154 0
1.53846 -8.46154 0
2.30769 -8.46154 0
3.07692 -8.46154 0
3.84615 -8.46154 0
4.61538 -8.46154 0
5.38462 -8.46154 0
6.15385 -8.46154 0
6.92308 -8.46154 0
7.69231 -8.46154 0
8.46154 -8.46154 0
10 -8.46154 0
-10 -7.69231 0
-9.23077 -7.69231 0
-8.46154 -7.69231 0
-7.69231 -7.69231 0
-6.92308 -7.69231 0
-6.15385 -7.69231 0
-5.38462 -7.69231 0
-4.61538 -7.69231 0
-3.84615 -7.69231 0
-3.07692 -7.69231 0
-2.30769 -7.69231 0
-1.53846 -7.69231 0
-0.769231 -7.69231 0
5.55112e-016 -7.69231 0
0.769231 -7.69231 0
1.53846 -7.69231 0
2.30769 -7.69231 0
3.07692 -7.69231 0
3.84615 -7.69231 0
4.61538 -7.69231 0
5.38462 -7.69231 0
6.15385 -7.69231 0
6.92308 -7.69231 0
7.69231 -7.69231 0
8.46154 -7.69231 0
10 -7.69231 0
-10 -6.92308 0
-9.23077 -6.92308 0
-8.46154 -6.92308 0
-7.69231 -6.92308 0
-6.92308 -6.92308 0
-6.15385 -6.92308 0
-5.38462 -6.92308 0
-4.61538 -6.92308 0
-3.84615 -6.92308 0
-3.07692 -6.92308 0
-2.30769 -6.92308 0
-1.53846 -6.92308 0
-0.769231 -6.92308 0
5.55112e-016 -6.92308 0
0.769231 -6.92308 0
1.53846 -6.92308 0
2.30769 -6.92308 0
3.07692 -6.92308 0
3.84615 -6.92308 0
4.61538 -6.92308 0
5.38462 -6.92308 0
6.15385 -6.92308 0
6.92308 -6.92308 0
7.69231 -6.92308 0
8.46154 -6.92308 0
10 -6.92308 0
-10 -6.15385 0
-9.23077 -6.15385 0
-8.46154 -6.15385 0
-7.69231 -6.15385 0
-6.92308 -6.15385 0
-6.15385 -6.15385 0
-5.38462 -6.15385 0
-4.61538 -6.15385 0
-3.84615 -6.15385 0
-3.07692 -6.15385 0
-2.30769 -6.15385 0
-1.53846 -6.15385 0
-0.769231 -6.15385 0
5.55112e-016 -6.15385 0
0.769231 -6.15385 0
1.53846 -6.15385 0
2.30769 -6.15385 0
3.07692 -6.15385 0
3.84615 -6.15385 0
4.61538 -6.15385 0
5.38462 -6.15385 0
6.15385 -6.15385 0
6.92308 -6.15385 0
7.69231 -6.15385 0
8.46154 -6.15385 0
10 -6.15385 0
-10 -5.38462 0
-9.23077 -5.38462 0
-8.46154 -5.38462 0
-7.69231 -5.38462 0
-6.92308 -5.38462 0
-6.15385 -5.38462 0
-5.38462 -5.38462 0
-4.61538 -5.38462 0
-3.84615 -5.38462 0
-3.07692 -5.38462 0
-2.30769 -5.38462 0
-1.53846 -5.38462 0
-0.769231 -5.38462 0
5.55112e-016 -5.38462 0
0.769231 -5.38462 0
1.53846 -5.38462 0
2.30769 -5.38462 0
3.07692 -5.38462 0
3.84615 -5.38462 0
4.61538 -5.38462 0
5.38462 -5.38462 0
6.15385 -5.38462 0
6.92308 -5.38462 0
7.69231 -5.38462 0
8.46154 -5.38462 0
10 -5.38462 0
-10 -4.61538 0
-9.23077 -4.61538 0
-8.46154 -4.61538 0
-7.69231 -4.61538 0
-6.92308 -4.61538 0
-6.15385 -4.61538 0
-5.38462 -4.61538 0
-4.61538 -4.61538 0
-3.84615 -4.61538 0
-3.07692 -4.61538 0
-2.30769 -4.61538 0
-1.53846 -4.61538 0
-0.769231 -4.61538 0
5.55112e-016 -4.61538 0
0.769231 -4.61538 0
1.53846 -4.61538 0
2.30769 -4.61538 0
3.07692 -4.61538 0
3.84615 -4.61538 0
4.61538 -4.61538 0
5.38462 -4.61538 0
6.15385 -4.61538 0
6.92308 -4.61538 0
7.69231 -4.61538 0
8.46154 -4.61538 0
10 -4.61538 0
-10 -3.84615 0
-9.23077 -3.84615 0
-8.46154 -3.84615 0
-7.69231 -3.84615 0
-6.92308 -3.84615 0
-6.15385 -3.84615 0
-5.38462 -3.84615 0
-4.61538 -3.84615 0
-3.84615 -3.84615 0
-3.07692 -3.84615 0
-2.30769 -3.84615 0
-1.53846 -3.84615 0
-0.769231 -3.84615 0
5.55112e-016 -3.84615 0
0.769231 -3.84615 0
1.53846 -3.84615 0
2.30769 -3.84615 0
3.07692 -3.84615 0
3.84615 -3.84615 0
4.61538 -3.84615 0
5.38462 -3.84615 0
6.15385 -3.84615 0
6.92308 -3.84615 0
7.69231 -3.84615 0
8.46154 -3.84615 0
10 -3.84615 0
-10 -3.07692 0
-9.23077 -3.07692 0
-8.46154 -3.07692 0
-7.69231 -3.07692 0
-6.92308 -3.07692 0
-6.15385 -3.07692 0
-5.38462 -3.07692 0
-4.61538 -3.07692 0
-3.84615 -3.07692 0
-3.07692 -3.07692 0
-2.30769 -3.07692 0
-1.53846 -3.07692 0
-0.769231 -3.07692 0
5.55112e-016 -3.07692 0
0.769231 -3.07692 0
1.53846 -3.07692 0
2.30769 -3.07692 0
3.07692 -3.07692 0
3.84615 -3.07692 0
4.61538 -3.07692 0
5.38462 -3.07692 0
6.15385 -3.07692 0
6.92308 -3.07692 0
7.69231 -3.07692 0
8.46154 -3.07692 0
10 -3.07692 0
-10 -2.30769 0
-9.23077 -2.30769 0
-8.46154 -2.30769 0
-7.69231 -2.30769 0
-6.92308 -2.30769 0
-6.15385 -2.30769 0
-5.38462 -2.30769 0
-4.61538 -2.30769 0
-3.84615 -2.30769 0
-3.07692 -2.30769 0
-2.30769 -2.30769 0
-1.53846 -2.30769 0
-0.769231 -2.30769 0
5.55112e-016 -2.30769 0
0.769231 -2.30769 0
1.53846 -2.30769 0
2.30769 -2.30769 0
3.07692 -2.30769 0
3.84615 -2.30769 0
4.61538 -2.30769 0
5.38462 -2.30769 0
6.15385 -2.30769 0
6.92308 -2.30769 0
7.69231 -2.30769 0
8.46154 -2.30769 0
10 -2.30769 0
-10 -1.53846 0
-9.23077 -1.53846 0
-8.46154 -1.53846 0
-7.69231 -1.53846 0
-6.92308 -1.53846 0
-6.15385 -1.53846 0
-5.38462 -1.53846 0
-4.61538 -1.53846 0
-3.84615 -1.53846 0
-3.07692 -1.53846 0
-2.30769 -1.53846 0
-1.53846 -1.53846 0
-0.769231 -1.53846 0
5.55112e-016 -1.53846 0
0.769231 -1.53846 0
1.53846 -1.53846 0
2.30769 -1.53846 0
3.07692 -1.53846 0
3.84615 -1.53846 0
4.61538 -1.53846 0
5.38462 -1.53846 0
6.15385 -1.53846 0
6.92308 -1.53846 0
7.69231 -1.53846 0
8.46154 -1.53846 0
10 -1.53846 0
-10 -0.769231 0
-9.23077 -0.769231 0
-8.46154 -0.769231 0
-7.69231 -0.769231 0
-6.92308 -0.769231 0
-6.15385 -0.769231 0
-5.38462 -0.769231 0
-4.61538 -0.769231 0
-3.84615 -0.769231 0
-3.07692 -0.769231 0
-2.30769 -0.769231 0
-1.53846 -0.769231 0
-0.769231 -0.769231 0
5.55112e-016 -0.769231 0
0.769231 -0.769231 0
1.53846 -0.769231 0
2.30769 -0.769231 0
3.07692 -0.769231 0
3.84615 -0.769231 0
4.61538 -0.769231 0
5.38462 -0.769231 0
6.15385 -0.769231 0
6.92308 -0.769231 0
7.69231 -0.769231 0
8.46154 -0.769231 0
10 -0.769231 0
-10 5.55112e-016 0
-9.23077 5.55112e-016 0
-8.46154 5.55112e-016 0
-7.69231 5.55112e-016 0
-6.92308 5.55112e-016 0
-6.15385 5.55112e-016 0
-5.38462 5.55112e-016 0
-4.61538 5.55112e-016 0
-3.84615 5.55112e-016 0
-3.07692 5.55112e-016 0
-2.30769 5.55112e-016 0
-1.53846 5.55112e-016 0
-0.769231 5.55112e-016 0
5.55112e-016 5.55112e-016 0
0.769231 5.55112e-016 0
1.53846 5.55112e-016 0
2.30769 5.55112e-016 0
3.07692 5.55112e-016 0
3.84615 5.55112e-016 0
4.61538 5.55112e-016 0
5.38462 5.55112e-016 0
6.15385 5.55112e-016 0
6.92308 5.55112e-016 0
7.69231 5.55112e-016 0
8.46154 5.55112e-016 0
10 5.55112e-016 0
-10 0.769231 0
-9.23077 0.769231 0
-8.46154 0.769231 0
-7.69231 0.769231 0
-6.92308 0.769231 0
-6.15385 0.769231 0
-5.38462 0.769231 0
-4.61538 0.769231 0
-3.84615 0.769231 0
-3.07692 0.769231 0
-2.30769 0.769231 0
-1.53846 0.769231 0
-0.769231 0.769231 0
5.55112e-016 0.769231 0
0.769231 0.769231 0
1.53846 0.769231 0
2.30769 0.769231 0
3.07692 0.769231 0
3.84615 0.769231 0
4.61538 0.769231 0
5.38462 0.769231 0
6.15385 0.769231 0
6.92308 0.769231 0
7.69231 0.769231 0
8.46154 0.769231 0
10 0.769231 0
-10 1.53846 0
-9.23077 1.53846 0
-8.46154 1.53846 0
-7.69231 1.53846 0
-6.92308 1.53846 0
-6.15385 1.53846 0
-5.38462 1.53846 0
-4.61538 1.53846 0
-3.84615 1.53846 0
-3.07692 1.53846 0
-2.30769 1.53846 0
-1.53846 1.53846 0
-0.769231 1.53846 0
5.55112e-016 1.53846 0
0.769231 1.53846 0
1.53846 1.53846 0
2.30769 1.53846 0
3.07692 1.53846 0
3.84615 1.53846 0
4.61538 1.53846 0
5.38462 1.53846 0
6.15385 1.53846 0
6.92308 1.53846 0
7.69231 1.53846 0
8.46154 1.53846 0
10 1.53846 0
-10 2.30769 0
-9.23077 2.30769 0
-8.46154 2.30769 0
-7.69231 2.30769 0
-6.92308 2.30769 0
-6.15385 2.30769 0
-5.38462 2.30769 0
-4.61538 2.30769 0
-3.84615 2.30769 0
-3.07692 2.30769 0
-2.30769 2.30769 0
-1.53846 2.30769 0
-0.769231 2.30769 0
5.55112e-016 2.30769 0
0.769231 2.30769 0
1.53846 2.30769 0
2.30769 2.30769 0
3.07692 2.30769 0
3.84615 2.30769 0
4.61538 2.30769 0
5.38462 2.30769 0
6.15385 2.30769 0
6.92308 2.30769 0
7.69231 2.30769 0
8.46154 2.30769 0
10 2.30769 0
-10 3.07692 0
-9.23077 3.07692 0
-8.46154 3.07692 0
-7.69231 3.07692 0
-6.92308 3.07692 0
-6.15385 3.07692 0
-5.38462 3.07692 0
-4.61538 3.07692 0
-3.84615 3.07692 0
-3.07692 3.07692 0
-2.30769 3.07692 0
-1.53846 3.07692 0
-0.769231 3.07692 0
5.55112e-016 3.07692 0
0.769231 3.07692 0
1.53846 3.07692 0
2.30769 3.07692 0
3.07692 3.07692 0
3.84615 3.07692 0
4.61538 3.07692 0
5.38462 3.07692 0
6.15385 3.07692 0
6.92308 3.07692 0
7.69231 3.07692 0
8.46154 3.07692 0
10 3.07692 0
-10 3.84615 0
-9.23077 3.84615 0
-8.46154 3.84615 0
-7.69231 3.84615 0
-6.92308 3.84615 0
-6.15385 3.84615 0
-5.38462 3.84615 0
-4.61538 3.84615 0
-3.84615 3.84615 0
-3.07692 3.84615 0
-2.30769 3.84615 0
-1.53846 3.84615 0
-0.769231 3.84615 0
5.55112e-016 3.84615 0
0.769231 3.84615 0
1.53846 3.84615 0
2.30769 3.84615 0
3.07692 3.84615 0
3.84615 3.84615 0
4.61538 3.84615 0
5.38462 3.84615 0
6.15385 3.84615 0
6.92308 3.84615 0
7.69231 3.84615 0
8.46154 3.84615 0
10 3.84615 0
-10 4.61538 0
-9.23077 4.61538 0
-8.46154 4.61538 0
-7.69231 4.61538 0
-6.92308 4.61538 0
-6.15385 4.61538 0
-5.38462 4.61538 0
-4.61538 4.61538 0
-3.84615 4.61538 0
-3.07692 4.61538 0
-2.30769 4.61538 0
-1.53846 4.61538 0
-0.769231 4.61538 0
5.55112e-016 4.61538 0
0.769231 4.61538 0
1.53846 4.61538 0
2.30769 4.61538 0
3.07692 4.61538 0
3.84615 4.61538 0
4.61538 4.61538 0
5.38462 4.61538 0
6.15385 4.61538 0
6.92308 4.61538 0
7.69231 4.61538 0
8.46154 4.61538 0
10 4.61538 0
-10 5.38462 0
-9.23077 5.38462 0
-8.46154 5.38462 0
-7.69231 5.38462 0
-6.92308 5.38462 0
-6.15385 5.38462 0
-5.38462 5.38462 0
-4.61538 5.38462 0
-3.84615 5.38462 0
-3.07692 5.38462 0
-2.30769 5.38462 0
-1.53846 5.38462 0
-0.769231 5.38462 0
5.55112e-016 5.38462 0
0.769231 5.38462 0
1.53846 5.38462 0
2.30769 5.38462 0
3.07692 5.38462 0
3.84615 5.38462 0
4.61538 5.38462 0
5.38462 5.38462 0
6.15385 5.38462 0
6.92308 5.38462 0
7.69231 5.38462 0
8.46154 5.38462 0
10 5.38462 0
-10 6.15385 0
-9.23077 6.15385 0
-8.46154 6.15385 0
-7.69231 6.15385 0
-6.92308 6.15385 0
-6.15385 6.15385 0
-5.38462 6.15385 0
-4.61538 6.15385 0
-3.84615 6.15385 0
-3.07692 6.15385 0
-2.30769 6.15385 0
-1.53846 6.15385 0
-0.769231 6.15385 0
5.55112e-016 6.15385 0
0.769231 6.15385 0
1.53846 6.15385 0
2.30769 6.15385 0
3.07692 6.15385 0
3.84615 6.15385 0
4.61538 6.15385 0
5.38462 6.15385 0
6.15385 6.15385 0
6.92308 6.15385 0
7.69231 6.15385 0
8.46154 6.15385 0
10 6.15385 0
-10 6.92308 0
-9.23077 6.92308 0
-8.46154 6.92308 0
-7.69231 6.92308 0
-6.92308 6.92308 0
-6.15385 6.92308 0
-5.38462 6.92308 0
-4.61538 6.92308 0
-3.84615 6.92308 0
-3.07692 6.92308 0
-2.30769 6.92308 0
-1.53846 6.92308 0
-0.769231 6.92308 0
5.55112e-016 6.92308 0
0.769231 6.92308 0
1.53846 6.92308 0
2.30769 6.92308 0
3.07692 6.92308 0
3.84615 6.92308 0
4.61538 6.92308 0
5.38462 6.92308 0
6.15385 6.92308 0
6.92308 6.92308 0
7.69231 6.92308 0
8.46154 6.92308 0
10 6.92308 0
-10 7.69231 0
-9.23077 7.69231 0
-8.46154 7.69231 0
-7.69231 7.69231 0
-6.92308 7.69231 0
-6.15385 7.69231 0
-5.38462 7.69231 0
-4.61538 7.69231 0
-3.84615 7.69231 0
-3.07692 7.69231 0
-2.30769 7.69231 0
-1.53846 7.69231 0
-0.769231 7.69231 0
5.55112e-016 7.69231 0
0.769231 7.69231 0
1.53846 7.69231 0
2.30769 7.69231 0
3.07692 7.69231 0
3.84615 7.69231 0
4.61538 7.69231 0
5.38462 7.69231 0
6.15385 7.69231 0
6.92308 7.69231 0
7.69231 7.69231 0
8.46154 7.69231 0
10 7.69231 0
-10 8.46154 0
-9.23077 8.46154 0
-8.46154 8.46154 0
-7.69231 8.46154 0
-6.92308 8.46154 0
-6.15385 8.46154 0
-5.38462 8.46154 0
-4.61538 8.46154 0
-3.84615 8.46154 0
-3.07692 8.46154 0
-2.30769 8.46154 0
-1.53846 8.46154 0
-0.769231 8.46154 0
5.55112e-016 8.46154 0
0.769231 8.46154 0
1.53846 8.46154 0
2.30769 8.46154 0
3.07692 8.46154 0
3.84615 8.46154 0
4.61538 8.46154 0
5.38462 8.46154 0
6.15385 8.46154 0
6.92308 8.46154 0
7.69231 8.46154 0
8.46154 8.46154 0
10 8.46154 0
-10 10 0
-9.23077 10 0
-8.46154 10 0
-7.69231 10 0
-6.92308 10 0
-6.15385 10 0
-5.38462 10 0
-4.61538 10 0
-3.84615 10 0
-3.07692 10 0
-2.30769 10 0
-1.53846 10 0
-0.769231 10 0
5.55112e-016 10 0
0.769231 10 0
1.53846 10 0
2.30769 10 0
3.07692 10 0
3.84615 10 0
4.61538 10 0
5.38462 10 0
6.15385 10 0
6.92308 10 0
7.69231 10 0
8.46154 10 0
10 10 0

POINT_DATA 676
SCALARS h double 1
LOOkUP_TABLE default
0.43658
0.378129
0.301897
0.224968
0.158618
0.107385
0.0708169
0.0460913
0.0299401
0.0195893
0.0130118
0.00885942
0.00631792
0.00502708
0.00517767
0.00791422
0.0159702
0.0339548
0.0676722
0.122084
0.197784
0.28726
0.373951
0.436717
0.458898
0.43658
0.376499
0.343351
0.286288
0.221102
0.160154
0.11042
0.0735512
0.0480055
0.031092
0.0202008
0.0132872
0.00892458
0.00619559
0.00457593
0.00390611
0.00455429
0.00787319
0.0167539
0.0356425
0.0695537
0.121806
0.190685
0.266744
0.333713
0.373781
0.376499
0.298395
0.288312
0.252711
0.203738
0.152853
0.10826
0.0734842
0.048516
0.0315918
0.0205439
0.0134883
0.00902839
0.00622202
0.00448068
0.00349448
0.00325044
0.00423846
0.00790245
0.0170444
0.035596
0.0674383
0.114151
0.172243
0.231696
0.278052
0.298395
0.216431
0.222694
0.206562
0.17505
0.137081
0.100578
0.0701833
0.0472933
0.0312361
0.0205058
0.0135523
0.00912201
0.00632015
0.00455716
0.003476
0.00291537
0.00296174
0.00416839
0.00794541
0.0167944
0.0339047
0.0619076
0.100846
0.146169
0.188413
0.216431
0.143693
0.157989
0.155892
0.139727
0.115012
0.0881023
0.0637385
0.0442297
0.0299032
0.0200018
0.0134316
0.00917981
0.00646507
0.00474337
0.00366269
0.00301973
0.00275211
0.00300871
0.00435207
0.00805194
0.0161668
0.0310411
0.0541087
0.0842502
0.11665
0.143693
0.0880994
0.103485
0.108872
0.103633
0.0901558
0.0725854
0.0548637
0.0395419
0.0276209
0.0190119
0.0131092
0.00919929
0.00666459
0.00504269
0.00401697
0.00338733
0.00304954
0.00300581
0.00343874
0.00487493
0.00836996
0.0154671
0.027667
0.045402
0.0669285
0.0880994
0.051297
0.0637683
0.0712382
0.0719924
0.0663486
0.0563924
0.0448073
0.0337994
0.0246151
0.0176178
0.0126209
0.00921165
0.00695821
0.00550246
0.00458197
0.00402058
0.00371273
0.00361726
0.00377698
0.00438412
0.00589343
0.00910573
0.0150429
0.0244657
0.0371359
0.051297
0.0303175
0.0387038
0.0450994
0.0479224
0.0465962
0.0418061
0.0350262
0.027812
0.0212903
0.0160121
0.0120685
0.00929168
0.00742333
0.00621339
0.00546117
0.00502328
0.00480772
0.00476681
0.00489852
0.0052668
0.00604966
0.00760046
0.0104541
0.0151691
0.0219647
0.0303175
0.0203762
0.0252099
0.0294289
0.0320299
0.0323378
0.0303686
0.0267544
0.0224026
0.018131
0.0144633
0.0116101
0.00955822
0.00818023
0.00731688
0.00682314
0.00658693
0.00653249
0.00661714
0.00682772
0.00718278
0.0077467
0.00865682
0.010144
0.012498
0.0159324
0.0203762
0.0171755
0.0194718
0.0215922
0.0230704
0.0234535
0.0225881
0.0206767
0.0181678
0.0155604
0.0132426
0.0114253
0.0101587
0.00938807
0.00901033
0.00891444
0.0090057
0.00921663
0.00950855
0.00986718
0.0102964
0.0108159
0.0114673
0.0123259
0.0135023
0.0151076
0.0171755
0.0179214
0.0184539
0.0188799
0.0190877
0.0188655
0.0181062
0.0168649
0.0153459
0.0138227
0.0125423
0.0116621
0.0112343
0.0112236
0.0115391
0.0120669
0.0126989
0.0133528
0.0139804
0.0145636
0.0151023
0.0156012
0.0160638
0.016497
0.0169224
0.017381
0.0179214
0.0212403
0.0203431
0.0193423
0.0183377
0.0172795
0.0161432
0.0149624
0.0138437
0.0129431
0.0124184
0.012381
0.0128677
0.013833
0.0151585
0.0166788
0.0182189
0.0196325
0.0208261
0.0217602
0.0224307
0.0228448
0.0230039
0.0229035
0.0225473
0.0219678
0.0212403
0.0267367
0.0243396
0.0219068
0.0196721
0.0176671
0.015918
0.0144626
0.0133757
0.012771
0.0127793
0.0135113
0.0150168
0.0172491
0.0200453
0.0231376
0.0262046
0.0289451
0.0311406
0.0326792
0.0335374
0.0337396
0.0333249
0.032337
0.0308349
0.0289166
0.0267367
0.0346743
0.0303456
0.0261858
0.0225256
0.0194123
0.0168711
0.014923
0.0136209
0.0130693
0.0134195
0.0148386
0.0174551
0.0212824
0.0261441
0.0316446
0.0372205
0.042268
0.0462856
0.0489663
0.0502066
0.0500541
0.0486431
0.046155
0.0428107
0.0388776
0.0346743
0.0458577
0.0387841
0.0322899
0.0267854
0.0222713
0.0187108
0.0160618
0.0143304
0.0136087
0.0140875
0.0160393
0.0197558
0.0254264
0.0329743
0.0419262
0.0514124
0.0603345
0.0676384
0.0725616
0.0747494
0.0742267
0.0712912
0.0664076
0.0601343
0.0530786
0.0458577
0.0616426
0.0505445
0.0407303
0.0326845
0.0262916
0.0213774
0.0177694
0.0153753
0.0142386
0.0145735
0.0167732
0.0213651
0.0288627
0.0394971
0.0529108
0.0679919
0.082995
0.0959494
0.105175
0.109668
0.109227
0.104334
0.0959344
0.085211
0.0733985
0.0616426
0.0839651
0.0669804
0.0523806
0.0407396
0.0317443
0.024988
0.0200779
0.0167458
0.0149215
0.0147862
0.0168155
0.0217852
0.0306517
0.0442143
0.0625939
0.0847528
0.108368
0.13024
0.147134
0.156664
0.157846
0.151156
0.138193
0.121164
0.102399
0.0839651
0.115227
0.0898467
0.0684253
0.051695
0.0390639
0.0297786
0.0231114
0.0185176
0.0157231
0.0147855
0.0161661
0.0208062
0.0301063
0.0456252
0.0684027
0.0980804
0.13226
0.166579
0.195687
0.214786
0.221031
0.214192
0.196419
0.171356
0.143081
0.115227
0.157801
0.121017
0.0901923
0.0664124
0.0487661
0.0360363
0.0270272
0.0207969
0.0167612
0.0147459
0.0150639
0.0186493
0.0271769
0.0429343
0.0681724
0.103922
0.14868
0.1977
0.243574
0.278191
0.295311
0.292524
0.271723
0.238055
0.198048
0.157801
0.21293
0.161812
0.118759
0.0856385
0.0613066
0.0440084
0.0319492
0.0236603
0.018136
0.014865
0.0138794
0.0158995
0.022572
0.0365956
0.061333
0.0996233
0.151948
0.214671
0.279503
0.335083
0.370458
0.378912
0.360192
0.320076
0.267811
0.21293
0.279027
0.211892
0.15428
0.109618
0.0768643
0.0537829
0.0379003
0.027108
0.0198761
0.0152697
0.0129443
0.0132436
0.017471
0.0282363
0.0494731
0.0856088
0.139676
0.21074
0.291828
0.370036
0.429785
0.458258
0.450296
0.410011
0.348451
0.279027
0.349958
0.267979
0.195163
0.137605
0.0950769
0.0651559
0.0447438
0.0310409
0.021922
0.0159721
0.0124255
0.0111768
0.0129878
0.0199175
0.0357104
0.0655396
0.114587
0.185351
0.274385
0.370296
0.455205
0.510298
0.523198
0.49296
0.429769
0.349958
0.414568
0.323118
0.237449
0.167471
0.114823
0.0775318
0.0521502
0.035264
0.0241484
0.0168922
0.01231
0.00986344
0.00974232
0.0132194
0.0232173
0.0445968
0.0834825
0.145174
0.230663
0.332961
0.435847
0.517426
0.558145
0.549156
0.49585
0.414568
0.4588
0.367433
0.274977
0.195689
0.13421
0.0899343
0.0596272
0.039527
0.0264143
0.0179232
0.0124874
0.00920271
0.00778353
0.00874863
0.0139301
0.0270809
0.0539097
0.100919
0.172657
0.267638
0.374852
0.474053
0.5418
0.561181
0.529481
0.4588
0.467071
0.387245
0.298085
0.216097
0.149593
0.100319
0.0660634
0.0432303
0.0283825
0.0188413
0.0127478
0.00892725
0.00676471
0.00622683
0.00816584
0.014937
0.0309065
0.0621349
0.114737
0.191599
0.288157
0.389847
0.474517
0.520513
0.516598
0.467071
0.43658
0.378129
0.301897
0.224968
0.158618
0.107385
0.0708169
0.0460913
0.0299401
0.0195893
0.0130118
0.00885942
0.00631792
0.00502708
0.00517767
0.00791422
0.0159702
0.0339548
0.0676722
0.122084
0.197784
0.28726
0.373951
0.436717
0.458898
0.43658

VECTORS u double
-157.98 131.491 0.0
-160.224 130.742 0.0
-161.705 129.491 0.0
-162.602 127.833 0.0
-162.945 125.753 0.0
-162.752 123.274 0.0
-162.047 120.453 0.0
-160.856 117.376 0.0
-159.203 114.151 0.0
-157.102 110.901 0.0
-154.549 107.757 0.0
-151.492 104.879 0.0
-147.789 102.586 0.0
-143.248 101.842 0.0
-138.46 104.844 0.0
-135.877 111.913 0.0
-136.368 118.75 0.0
-138.3 123.273 0.0
-140.656 126.125 0.0
-143.175 128.049 0.0
-145.809 129.422 0.0
-148.523 130.398 0.0
-151.254 131.032 0.0
-153.892 131.344 0.0
-156.296 131.424 0.0
-157.98 131.491 0.0
-157.038 130.675 0.0
-159.179 130.54 0.0
-160.689 129.18 0.0
-161.689 127.52 0.0
-162.161 125.503 0.0
-162.098 123.134 0.0
-161.51 120.456 0.0
-160.411 117.54 0.0
-158.817 114.484 0.0
-156.738 111.406 0.0
-154.177 108.437 0.0
-151.122 105.718 0.0
-147.531 103.426 0.0
-143.318 101.938 0.0
-138.591 102.379 0.0
-134.786 106.717 0.0
-134.211 113.794 0.0
-136.101 119.578 0.0
-138.682 123.229 0.0
-141.369 125.557 0.0
-144.104 127.161 0.0
-146.904 128.326 0.0
-149.756 129.173 0.0
-152.659 129.766 0.0
-155.457 130.177 0.0
-157.038 130.675 0.0
-156.303 129.371 0.0
-158.228 129.549 0.0
-159.612 128.458 0.0
-160.617 126.96 0.0
-161.157 125.096 0.0
-161.188 122.894 0.0
-160.695 120.397 0.0
-159.677 117.675 0.0
-158.136 114.821 0.0
-156.071 111.955 0.0
-153.482 109.213 0.0
-150.372 106.743 0.0
-146.749 104.696 0.0
-142.626 103.252 0.0
-138.07 102.785 0.0
-133.672 104.343 0.0
-131.504 109.188 0.0
-132.886 115.4 0.0
-135.885 120.039 0.0
-139.013 122.965 0.0
-142.033 124.888 0.0
-145.025 126.266 0.0
-148.062 127.314 0.0
-151.162 128.126 0.0
-154.295 128.761 0.0
-156.303 129.371 0.0
-154.71 127.763 0.0
-156.786 128.03 0.0
-158.234 127.317 0.0
-159.286 126.106 0.0
-159.89 124.487 0.0
-159.999 122.514 0.0
-159.587 120.246 0.0
-158.639 117.756 0.0
-157.142 115.143 0.0
-155.083 112.53 0.0
-152.456 110.068 0.0
-149.27 107.921 0.0
-145.563 106.248 0.0
-141.41 105.182 0.0
-136.937 104.842 0.0
-132.439 105.462 0.0
-128.962 107.697 0.0
-128.659 112.033 0.0
-131.66 116.818 0.0
-135.567 120.327 0.0
-139.233 122.631 0.0
-142.638 124.232 0.0
-145.941 125.441 0.0
-149.234 126.395 0.0
-152.453 127.135 0.0
-154.71 127.763 0.0
-152.403 126.008 0.0
-154.758 126.322 0.0
-156.406 125.915 0.0
-157.585 125.009 0.0
-158.287 123.675 0.0
-158.486 121.973 0.0
-158.154 119.97 0.0
-157.269 117.747 0.0
-155.808 115.41 0.0
-153.747 113.098 0.0
-151.076 110.978 0.0
-147.812 109.237 0.0
-144.019 108.046 0.0
-139.828 107.522 0.0
-135.425 107.695 0.0
-131.058 108.521 0.0
-127.186 109.969 0.0
-125.013 112.186 0.0
-126.272 115.217 0.0
-130.393 118.287 0.0
-135.045 120.657 0.0
-139.257 122.359 0.0
-143.07 123.637 0.0
-146.639 124.637 0.0
-149.987 125.404 0.0
-152.403 126.008 0.0
-149.451 124.28 0.0
-152.144 124.597 0.0
-154.067 124.394 0.0
-155.44 123.747 0.0
-156.288 122.689 0.0
-156.6 121.267 0.0
-156.357 119.548 0.0
-155.535 117.617 0.0
-154.105 115.594 0.0
-152.037 113.635 0.0
-149.321 111.935 0.0
-145.99 110.702 0.0
-142.15 110.11 0.0
-137.989 110.245 0.0
-133.745 111.063 0.0
-129.671 112.404 0.0
-126.032 114.04 0.0
-123.269 115.735 0.0
-122.383 117.313 0.0
-124.554 118.742 0.0
-129.174 120.055 0.0
-134.305 121.223 0.0
-138.976 122.229 0.0
-143.104 123.077 0.0
-146.758 123.749 0.0
-149.451 124.28 0.0
-145.739 122.851 0.0
-148.884 123.052 0.0
-151.159 122.921 0.0
-152.796 122.439 0.0
-153.84 121.603 0.0
-154.299 120.436 0.0
-154.165 118.996 0.0
-153.414 117.372 0.0
-152.015 115.699 0.0
-149.94 114.159 0.0
-147.191 112.976 0.0
-143.833 112.371 0.0
-140.03 112.5 0.0
-136.028 113.377 0.0
-132.103 114.859 0.0
-128.493 116.701 0.0
-125.371 118.626 0.0
-122.9 120.375 0.0
-121.385 121.698 0.0
-121.483 122.373 0.0
-123.922 122.411 0.0
-128.386 122.206 0.0
-133.533 122.153 0.0
-138.369 122.314 0.0
-142.586 122.572 0.0
-145.739 122.851 0.0
-141.328 122.282 0.0
-144.999 122.071 0.0
-147.697 121.777 0.0
-149.658 121.296 0.0
-150.948 120.568 0.0
-151.592 119.587 0.0
-151.589 118.392 0.0
-150.923 117.074 0.0
-149.565 115.787 0.0
-147.497 114.742 0.0
-144.75 114.186 0.0
-141.445 114.336 0.0
-137.813 115.278 0.0
-134.151 116.912 0.0
-130.729 118.982 0.0
-127.732 121.18 0.0
-125.25 123.243 0.0
-123.332 124.976 0.0
-122.054 126.232 0.0
-121.607 126.853 0.0
-122.361 126.695 0.0
-124.715 125.791 0.0
-128.577 124.533 0.0
-133.185 123.423 0.0
-137.708 122.682 0.0
-141.328 122.282 0.0
-137.164 123.337 0.0
-141.056 122.283 0.0
-144.043 121.448 0.0
-146.279 120.679 0.0
-147.804 119.857 0.0
-148.634 118.923 0.0
-148.77 117.892 0.0
-148.196 116.853 0.0
-146.889 115.976 0.0
-144.856 115.5 0.0
-142.176 115.678 0.0
-139.044 116.669 0.0
-135.756 118.439 0.0
-132.617 120.741 0.0
-129.844 123.229 0.0
-127.535 125.593 0.0
-125.705 127.625 0.0
-124.348 129.213 0.0
-123.482 130.301 0.0
-123.165 130.835 0.0
-123.515 130.741 0.0
-124.708 129.946 0.0
-126.904 128.487 0.0
-130.05 126.634 0.0
-133.763 124.806 0.0
-137.164 123.337 0.0
-135.04 126.007 0.0
-138.451 124.06 0.0
-141.225 122.408 0.0
-143.42 121.032 0.0
-144.988 119.833 0.0
-145.89 118.732 0.0
-146.095 117.721 0.0
-145.572 116.885 0.0
-144.304 116.409 0.0
-142.326 116.543 0.0
-139.786 117.504 0.0
-136.955 119.335 0.0
-134.158 121.83 0.0
-131.659 124.616 0.0
-129.583 127.321 0.0
-127.94 129.685 0.0
-126.694 131.581 0.0
-125.822 132.969 0.0
-125.329 133.85 0.0
-125.256 134.227 0.0
-125.655 134.089 0.0
-126.58 133.404 0.0
-128.069 132.144 0.0
-130.116 130.348 0.0
-132.626 128.192 0.0
-135.04 126.007 0.0
-135.465 129.137 0.0
-138.164 126.78 0.0
-140.336 124.504 0.0
-142.094 122.467 0.0
-143.375 120.709 0.0
-144.098 119.231 0.0
-144.191 118.058 0.0
-143.592 117.296 0.0
-142.281 117.151 0.0
-140.331 117.863 0.0
-137.959 119.559 0.0
-135.49 122.112 0.0
-133.237 125.146 0.0
-131.377 128.214 0.0
-129.938 130.976 0.0
-128.868 133.254 0.0
-128.105 134.992 0.0
-127.622 136.2 0.0
-127.434 136.907 0.0
-127.582 137.141 0.0
-128.11 136.915 0.0
-129.043 136.232 0.0
-130.363 135.082 0.0
-132.007 133.466 0.0
-133.871 131.429 0.0
-135.465 129.137 0.0
-137.37 131.894 0.0
-139.641 129.493 0.0
-141.323 126.968 0.0
-142.593 124.51 0.0
-143.433 122.262 0.0
-143.784 120.34 0.0
-143.572 118.869 0.0
-142.726 118.034 0.0
-141.232 118.088 0.0
-139.21 119.257 0.0
-136.944 121.549 0.0
-134.792 124.648 0.0
-133.015 128.038 0.0
-131.696 131.249 0.0
-130.779 134.001 0.0
-130.167 136.19 0.0
-129.79 137.813 0.0
-129.623 138.903 0.0
-129.685 139.504 0.0
-130.021 139.648 0.0
-130.679 139.359 0.0
-131.675 138.65 0.0
-132.983 137.531 0.0
-134.518 136.006 0.0
-136.152 134.095 0.0
-137.37 131.894 0.0
-139.819 134.205 0.0
-141.904 131.842 0.0
-143.336 129.254 0.0
-144.304 126.597 0.0
-144.806 124.028 0.0
-144.804 121.725 0.0
-144.238 119.91 0.0
-143.049 118.872 0.0
-141.249 118.956 0.0
-139.022 120.404 0.0
-136.735 123.119 0.0
-134.773 126.611 0.0
-133.342 130.246 0.0
-132.431 133.552 0.0
-131.916 136.306 0.0
-131.67 138.458 0.0
-131.609 140.035 0.0
-131.708 141.087 0.0
-131.989 141.657 0.0
-132.497 141.778 0.0
-133.278 141.475 0.0
-134.35 140.764 0.0
-135.685 139.66 0.0
-137.197 138.176 0.0
-138.752 136.33 0.0
-139.819 134.205 0.0
-142.416 136.195 0.0
-144.412 133.863 0.0
-145.725 131.252 0.0
-146.539 128.488 0.0
-146.851 125.708 0.0
-146.617 123.101 0.0
-145.777 120.935 0.0
-144.268 119.587 0.0
-142.122 119.516 0.0
-139.591 121.041 0.0
-137.144 124.017 0.0
-135.223 127.803 0.0
-133.997 131.65 0.0
-133.376 135.07 0.0
-133.173 137.877 0.0
-133.226 140.058 0.0
-133.439 141.663 0.0
-133.781 142.749 0.0
-134.268 143.359 0.0
-134.944 143.522 0.0
-135.851 143.26 0.0
-137.008 142.588 0.0
-138.386 141.523 0.0
-139.903 140.078 0.0
-141.425 138.274 0.0
-142.416 136.195 0.0
-145.022 137.929 0.0
-146.959 135.624 0.0
-148.196 132.998 0.0
-148.922 130.156 0.0
-149.129 127.217 0.0
-148.768 124.355 0.0
-147.764 121.839 0.0
-146.031 120.089 0.0
-143.579 119.672 0.0
-140.694 121.054 0.0
-137.965 124.135 0.0
-135.941 128.157 0.0
-134.793 132.229 0.0
-134.365 135.811 0.0
-134.407 138.729 0.0
-134.717 141.001 0.0
-135.181 142.696 0.0
-135.756 143.876 0.0
-136.451 144.582 0.0
-137.3 144.842 0.0
-138.344 144.671 0.0
-139.597 144.083 0.0
-141.033 143.092 0.0
-142.57 141.711 0.0
-144.08 139.96 0.0
-145.022 137.929 0.0
-147.565 139.385 0.0
-149.454 137.127 0.0
-150.632 134.503 0.0
-151.293 131.607 0.0
-151.432 128.543 0.0
-151.005 125.463 0.0
-149.929 122.611 0.0
-148.087 120.399 0.0
-145.425 119.462 0.0
-142.196 120.456 0.0
-139.082 123.46 0.0
-136.806 127.667 0.0
-135.609 131.998 0.0
-135.288 135.799 0.0
-135.52 138.885 0.0
-136.057 141.296 0.0
-136.757 143.123 0.0
-137.562 144.437 0.0
-138.468 145.28 0.0
-139.502 145.677 0.0
-140.696 145.639 0.0
-142.061 145.176 0.0
-143.571 144.297 0.0
-145.145 143.015 0.0
-146.659 141.346 0.0
-147.565 139.385 0.0
-149.988 140.486 0.0
-151.838 138.309 0.0
-152.966 135.721 0.0