# vtk DataFile Version 2.0
Particulate Flow Equations Solution
ASCII
DATASET STRUCTURED_GRID
DIMENSIONS 26 26 1
POINTS 676 double
-10 -10 0
-9.23077 -10 0
-8.46154 -10 0
-7.69231 -10 0
-6.92308 -10 0
-6.15385 -10 0
-5.38462 -10 0
-4.61538 -10 0
-3.84615 -10 0
-3.07692 -10 0
-2.30769 -10 0
-1.53846 -10 0
-0.769231 -10 0
5.55112e-016 -10 0
0.769231 -10 0
1.53846 -10 0
2.30769 -10 0
3.07692 -10 0
3.84615 -10 0
4.61538 -10 0
5.38462 -10 0
6.15385 -10 0
6.92308 -10 0
7.69231 -10 0
8.46154 -10 0
10 -10 0
-10 -9.23077 0
-9.23077 -9.23077 0
-8.46154 -9.23077 0
-7.69231 -9.23077 0
-6.92308 -9.23077 0
-6.15385 -9.23077 0
-5.38462 -9.23077 0
-4.61538 -9.23077 0
-3.84615 -9.23077 0
-3.07692 -9.23077 0
-2.30769 -9.23077 0
-1.53846 -9.23077 0
-0.769231 -9.23077 0
5.55112e-016 -9.23077 0
0.769231 -9.23077 0
1.53846 -9.23077 0
2.30769 -9.23077 0
3.07692 -9.23077 0
3.84615 -9.23077 0
4.61538 -9.23077 0
5.38462 -9.23077 0
6.15385 -9.23077 0
6.92308 -9.23077 0
7.69231 -9.23077 0
8.46154 -9.23077 0
10 -9.23077 0
-10 -8.46154 0
-9.23077 -8.46154 0
-8.46154 -8.46154 0
-7.69231 -8.46154 0
-6.92308 -8.46154 0
-6.15385 -8.46154 0
-5.38462 -8.46154 0
-4.61538 -8.46154 0
-3.84615 -8.46154 0
-3.07692 -8.46154 0
-2.30769 -8.46154 0
-1.53846 -8.46154 0
-0.769231 -8.46154 0
5.55112e-016 -8.46154 0
0.769231 -8.46154 0
1.53846 -8.46154 0
2.30769 -8.46154 0
3.07692 -8.46154 0
3.84615 -8.46154 0
4.61538 -8.46154 0
5.38462 -8.46154 0
6.15385 -8.46154 0
6.92308 -8.46154 0
7.69231 -8.46154 0
8.46154 -8.46154 0
10 -8.46154 0
-10 -7.69231 0
-9.23077 -7.69231 0
-8.46154 -7.69231 0
-7.69231 -7.69231 0
-6.92308 -7.69231 0
-6.15385 -7.69231 0
-5.38462 -7.69231 0
-4.61538 -7.69231 0
-3.84615 -7.69231 0
-3.07692 -7.69231 0
-2.30769 -7.69231 0
-1.53846 -7.69231 0
-0.769231 -7.69231 0
5.55112e-016 -7.69231 0
0.769231 -7.69231 0
1.53846 -7.69231 0
2.30769 -7.69231 0
3.07692 -7.69231 0
3.84615 -7.69231 0
4.61538 -7.69231 0
5.38462 -7.69231 0
6.15385 -7.69231 0
6.92308 -7.69231 0
7.69231 -7.69231 0
8.46154 -7.69231 0
10 -7.69231 0
-10 -6.92308 0
-9.23077 -6.92308 0
-8.46154 -6.92308 0
-7.69231 -6.92308 0
-6.92308 -6.92308 0
-6.15385 -6.92308 0
-5.38462 -6.92308 0
-4.61538 -6.92308 0
-3.84615 -6.92308 0
-3.07692 -6.92308 0
-2.30769 -6.92308 0
-1.53846 -6.92308 0
-0.769231 -6.92308 0
5.55112e-016 -6.92308 0
0.769231 -6.92308 0
1.53846 -6.92308 0
2.30769 -6.92308 0
3.07692 -6.92308 0
3.84615 -6.92308 0
4.61538 -6.92308 0
5.38462 -6.92308 0
6.15385 -6.92308 0
6.92308 -6.92308 0
7.69231 -6.92308 0
8.46154 -6.92308 0
10 -6.92308 0
-10 -6.15385 0
-9.23077 -6.15385 0
-8.46154 -6.15385 0
-7.69231 -6.15385 0
-6.92308 -6.15385 0
-6.15385 -6.15385 0
-5.38462 -6.15385 0
-4.61538 -6.15385 0
-3.84615 -6.15385 0
-3.07692 -6.15385 0
-2.30769 -6.15385 0
-1.53846 -6.15385 0
-0.769231 -6.15385 0
5.55112e-016 -6.15385 0
0.769231 -6.15385 0
1.53846 -6.15385 0
2.30769 -6.15385 0
3.07692 -6.15385 0
3.84615 -6.15385 0
4.61538 -6.15385 0
5.38462 -6.15385 0
6.15385 -6.15385 0
6.92308 -6.15385 0
7.69231 -6.15385 0
8.46154 -6.15385 0
10 -6.15385 0
-10 -5.38462 0
-9.23077 -5.38462 0
-8.46154 -5.38462 0
-7.69231 -5.38462 0
-6.92308 -5.38462 0
-6.15385 -5.38462 0
-5.38462 -5.38462 0
-4.61538 -5.38462 0
-3.84615 -5.38462 0
-3.07692 -5.38462 0
-2.30769 -5.38462 0
-1.53846 -5.38462 0
-0.769231 -5.38462 0
5.55112e-016 -5.38462 0
0.769231 -5.38462 0
1.53846 -5.38462 0
2.30769 -5.38462 0
3.07692 -5.38462 0
3.84615 -5.38462 0
4.61538 -5.38462 0
5.38462 -5.38462 0
6.15385 -5.38462 0
6.92308 -5.38462 0
7.69231 -5.38462 0
8.46154 -5.38462 0
10 -5.38462 0
-10 -4.61538 0
-9.23077 -4.61538 0
-8.46154 -4.61538 0
-7.69231 -4.61538 0
-6.92308 -4.61538 0
-6.15385 -4.61538 0
-5.38462 -4.61538 0
-4.61538 -4.61538 0
-3.84615 -4.61538 0
-3.07692 -4.61538 0
-2.30769 -4.61538 0
-1.53846 -4.61538 0
-0.769231 -4.61538 0
5.55112e-016 -4.61538 0
0.769231 -4.61538 0
1.53846 -4.61538 0
2.30769 -4.61538 0
3.07692 -4.61538 0
3.84615 -4.61538 0
4.61538 -4.61538 0
5.38462 -4.61538 0
6.15385 -4.61538 0
6.92308 -4.61538 0
7.69231 -4.61538 0
8.46154 -4.61538 0
10 -4.61538 0
-10 -3.84615 0
-9.23077 -3.84615 0
-8.46154 -3.84615 0
-7.69231 -3.84615 0
-6.92308 -3.84615 0
-6.15385 -3.84615 0
-5.38462 -3.84615 0
-4.61538 -3.84615 0
-3.84615 -3.84615 0
-3.07692 -3.84615 0
-2.30769 -3.84615 0
-1.53846 -3.84615 0
-0.769231 -3.84615 0
5.55112e-016 -3.84615 0
0.769231 -3.84615 0
1.53846 -3.84615 0
2.30769 -3.84615 0
3.07692 -3.84615 0
3.84615 -3.84615 0
4.61538 -3.84615 0
5.38462 -3.84615 0
6.15385 -3.84615 0
6.92308 -3.84615 0
7.69231 -3.84615 0
8.46154 -3.84615 0
10 -3.84615 0
-10 -3.07692 0
-9.23077 -3.07692 0
-8.46154 -3.07692 0
-7.69231 -3.07692 0
-6.92308 -3.07692 0
-6.15385 -3.07692 0
-5.38462 -3.07692 0
-4.61538 -3.07692 0
-3.84615 -3.07692 0
-3.07692 -3.07692 0
-2.30769 -3.07692 0
-1.53846 -3.07692 0
-0.769231 -3.07692 0
5.55112e-016 -3.07692 0
0.769231 -3.07692 0
1.53846 -3.07692 0
2.30769 -3.07692 0
3.07692 -3.07692 0
3.84615 -3.07692 0
4.61538 -3.07692 0
5.38462 -3.07692 0
6.15385 -3.07692 0
6.92308 -3.07692 0
7.69231 -3.07692 0
8.46154 -3.07692 0
10 -3.07692 0
-10 -2.30769 0
-9.23077 -2.30769 0
-8.46154 -2.30769 0
-7.69231 -2.30769 0
-6.92308 -2.30769 0
-6.15385 -2.30769 0
-5.38462 -2.30769 0
-4.61538 -2.30769 0
-3.84615 -2.30769 0
-3.07692 -2.30769 0
-2.30769 -2.30769 0
-1.53846 -2.30769 0
-0.769231 -2.30769 0
5.55112e-016 -2.30769 0
0.769231 -2.30769 0
1.53846 -2.30769 0
2.30769 -2.30769 0
3.07692 -2.30769 0
3.84615 -2.30769 0
4.61538 -2.30769 0
5.38462 -2.30769 0
6.15385 -2.30769 0
6.92308 -2.30769 0
7.69231 -2.30769 0
8.46154 -2.30769 0
10 -2.30769 0
-10 -1.53846 0
-9.23077 -1.53846 0
-8.46154 -1.53846 0
-7.69231 -1.53846 0
-6.92308 -1.53846 0
-6.15385 -1.53846 0
-5.38462 -1.53846 0
-4.61538 -1.53846 0
-3.84615 -1.53846 0
-3.07692 -1.53846 0
-2.30769 -1.53846 0
-1.53846 -1.53846 0
-0.769231 -1.53846 0
5.55112e-016 -1.53846 0
0.769231 -1.53846 0
1.53846 -1.53846 0
2.30769 -1.53846 0
3.07692 -1.53846 0
3.84615 -1.53846 0
4.61538 -1.53846 0
5.38462 -1.53846 0
6.15385 -1.53846 0
6.92308 -1.53846 0
7.69231 -1.53846 0
8.46154 -1.53846 0
10 -1.53846 0
-10 -0.769231 0
-9.23077 -0.769231 0
-8.46154 -0.769231 0
-7.69231 -0.769231 0
-6.92308 -0.769231 0
-6.15385 -0.769231 0
-5.38462 -0.769231 0
-4.61538 -0.769231 0
-3.84615 -0.769231 0
-3.07692 -0.769231 0
-2.30769 -0.769231 0
-1.53846 -0.769231 0
-0.769231 -0.769231 0
5.55112e-016 -0.769231 0
0.769231 -0.769231 0
1.53846 -0.769231 0
2.30769 -0.769231 0
3.07692 -0.769231 0
3.84615 -0.769231 0
4.61538 -0.769231 0
5.38462 -0.769231 0
6.15385 -0.769231 0
6.92308 -0.769231 0
7.69231 -0.769231 0
8.46154 -0.769231 0
10 -0.769231 0
-10 5.55112e-016 0
-9.23077 5.55112e-016 0
-8.46154 5.55112e-016 0
-7.69231 5.55112e-016 0
-6.92308 5.55112e-016 0
-6.15385 5.55112e-016 0
-5.38462 5.55112e-016 0
-4.61538 5.55112e-016 0
-3.84615 5.55112e-016 0
-3.07692 5.55112e-016 0
-2.30769 5.55112e-016 0
-1.53846 5.55112e-016 0
-0.769231 5.55112e-016 0
5.55112e-016 5.55112e-016 0
0.769231 5.55112e-016 0
1.53846 5.55112e-016 0
2.30769 5.55112e-016 0
3.07692 5.55112e-016 0
3.84615 5.55112e-016 0
4.61538 5.55112e-016 0
5.38462 5.55112e-016 0
6.15385 5.55112e-016 0
6.92308 5.55112e-016 0
7.69231 5.55112e-016 0
8.46154 5.55112e-016 0
10 5.55112e-016 0
-10 0.769231 0
-9.23077 0.769231 0
-8.46154 0.769231 0
-7.69231 0.769231 0
-6.92308 0.769231 0
-6.15385 0.769231 0
-5.38462 0.769231 0
-4.61538 0.769231 0
-3.84615 0.769231 0
-3.07692 0.769231 0
-2.30769 0.769231 0
-1.53846 0.769231 0
-0.769231 0.769231 0
5.55112e-016 0.769231 0
0.769231 0.769231 0
1.53846 0.769231 0
2.30769 0.769231 0
3.07692 0.769231 0
3.84615 0.769231 0
4.61538 0.769231 0
5.38462 0.769231 0
6.15385 0.769231 0
6.92308 0.769231 0
7.69231 0.769231 0
8.46154 0.769231 0
10 0.769231 0
-10 1.53846 0
-9.23077 1.53846 0
-8.46154 1.53846 0
-7.69231 1.53846 0
-6.92308 1.53846 0
-6.15385 1.53846 0
-5.38462 1.53846 0
-4.61538 1.53846 0
-3.84615 1.53846 0
-3.07692 1.53846 0
-2.30769 1.53846 0
-1.53846 1.53846 0
-0.769231 1.53846 0
5.55112e-016 1.53846 0
0.769231 1.53846 0
1.53846 1.53846 0
2.30769 1.53846 0
3.07692 1.53846 0
3.84615 1.53846 0
4.61538 1.53846 0
5.38462 1.53846 0
6.15385 1.53846 0
6.92308 1.53846 0
7.69231 1.53846 0
8.46154 1.53846 0
10 1.53846 0
-10 2.30769 0
-9.23077 2.30769 0
-8.46154 2.30769 0
-7.69231 2.30769 0
-6.92308 2.30769 0
-6.15385 2.30769 0
-5.38462 2.30769 0
-4.61538 2.30769 0
-3.84615 2.30769 0
-3.07692 2.30769 0
-2.30769 2.30769 0
-1.53846 2.30769 0
-0.769231 2.30769 0
5.55112e-016 2.30769 0
0.769231 2.30769 0
1.53846 2.30769 0
2.30769 2.30769 0
3.07692 2.30769 0
3.84615 2.30769 0
4.61538 2.30769 0
5.38462 2.30769 0
6.15385 2.30769 0
6.92308 2.30769 0
7.69231 2.30769 0
8.46154 2.30769 0
10 2.30769 0
-10 3.07692 0
-9.23077 3.07692 0
-8.46154 3.07692 0
-7.69231 3.07692 0
-6.92308 3.07692 0
-6.15385 3.07692 0
-5.38462 3.07692 0
-4.61538 3.07692 0
-3.84615 3.07692 0
-3.07692 3.07692 0
-2.30769 3.07692 0
-1.53846 3.07692 0
-0.769231 3.07692 0
5.55112e-016 3.07692 0
0.769231 3.07692 0
1.53846 3.07692 0
2.30769 3.07692 0
3.07692 3.07692 0
3.84615 3.07692 0
4.61538 3.07692 0
5.38462 3.07692 0
6.15385 3.07692 0
6.92308 3.07692 0
7.69231 3.07692 0
8.46154 3.07692 0
10 3.07692 0
-10 3.84615 0
-9.23077 3.84615 0
-8.46154 3.84615 0
-7.69231 3.84615 0
-6.92308 3.84615 0
-6.15385 3.84615 0
-5.38462 3.84615 0
-4.61538 3.84615 0
-3.84615 3.84615 0
-3.07692 3.84615 0
-2.30769 3.84615 0
-1.53846 3.84615 0
-0.769231 3.84615 0
5.55112e-016 3.84615 0
0.769231 3.84615 0
1.53846 3.84615 0
2.30769 3.84615 0
3.07692 3.84615 0
3.84615 3.84615 0
4.61538 3.84615 0
5.38462 3.84615 0
6.15385 3.84615 0
6.92308 3.84615 0
7.69231 3.84615 0
8.46154 3.84615 0
10 3.84615 0
-10 4.61538 0
-9.23077 4.61538 0
-8.46154 4.61538 0
-7.69231 4.61538 0
-6.92308 4.61538 0
-6.15385 4.61538 0
-5.38462 4.61538 0
-4.61538 4.61538 0
-3.84615 4.61538 0
-3.07692 4.61538 0
-2.30769 4.61538 0
-1.53846 4.61538 0
-0.769231 4.61538 0
5.55112e-016 4.61538 0
0.769231 4.61538 0
1.53846 4.61538 0
2.30769 4.61538 0
3.07692 4.61538 0
3.84615 4.61538 0
4.61538 4.61538 0
5.38462 4.61538 0
6.15385 4.61538 0
6.92308 4.61538 0
7.69231 4.61538 0
8.46154 4.61538 0
10 4.61538 0
-10 5.38462 0
-9.23077 5.38462 0
-8.46154 5.38462 0
-7.69231 5.38462 0
-6.92308 5.38462 0
-6.15385 5.38462 0
-5.38462 5.38462 0
-4.61538 5.38462 0
-3.84615 5.38462 0
-3.07692 5.38462 0
-2.30769 5.38462 0
-1.53846 5.38462 0
-0.769231 5.38462 0
5.55112e-016 5.38462 0
0.769231 5.38462 0
1.53846 5.38462 0
2.30769 5.38462 0
3.07692 5.38462 0
3.84615 5.38462 0
4.61538 5.38462 0
5.38462 5.38462 0
6.15385 5.38462 0
6.92308 5.38462 0
7.69231 5.38462 0
8.46154 5.38462 0
10 5.38462 0
-10 6.15385 0
-9.23077 6.15385 0
-8.46154 6.15385 0
-7.69231 6.15385 0
-6.92308 6.15385 0
-6.15385 6.15385 0
-5.38462 6.15385 0
-4.61538 6.15385 0
-3.84615 6.15385 0
-3.07692 6.15385 0
-2.30769 6.15385 0
-1.53846 6.15385 0
-0.769231 6.15385 0
5.55112e-016 6.15385 0
0.769231 6.15385 0
1.53846 6.15385 0
2.30769 6.15385 0
3.07692 6.15385 0
3.84615 6.15385 0
4.61538 6.15385 0
5.38462 6.15385 0
6.15385 6.15385 0
6.92308 6.15385 0
7.69231 6.15385 0
8.46154 6.15385 0
10 6.15385 0
-10 6.92308 0
-9.23077 6.92308 0
-8.46154 6.92308 0
-7.69231 6.92308 0
-6.92308 6.92308 0
-6.15385 6.92308 0
-5.38462 6.92308 0
-4.61538 6.92308 0
-3.84615 6.92308 0
-3.07692 6.92308 0
-2.30769 6.92308 0
-1.53846 6.92308 0
-0.769231 6.92308 0
5.55112e-016 6.92308 0
0.769231 6.92308 0
1.53846 6.92308 0
2.30769 6.92308 0
3.07692 6.92308 0
3.84615 6.92308 0
4.61538 6.92308 0
5.38462 6.92308 0
6.15385 6.92308 0
6.92308 6.92308 0
7.69231 6.92308 0
8.46154 6.92308 0
10 6.92308 0
-10 7.69231 0
-9.23077 7.69231 0
-8.46154 7.69231 0
-7.69231 7.69231 0
-6.92308 7.69231 0
-6.15385 7.69231 0
-5.38462 7.69231 0
-4.61538 7.69231 0
-3.84615 7.69231 0
-3.07692 7.69231 0
-2.30769 7.69231 0
-1.53846 7.69231 0
-0.769231 7.69231 0
5.55112e-016 7.69231 0
0.769231 7.69231 0
1.53846 7.69231 0
2.30769 7.69231 0
3.07692 7.69231 0
3.84615 7.69231 0
4.61538 7.69231 0
5.38462 7.69231 0
6.15385 7.69231 0
6.92308 7.69231 0
7.69231 7.69231 0
8.46154 7.69231 0
10 7.69231 0
-10 8.46154 0
-9.23077 8.46154 0
-8.46154 8.46154 0
-7.69231 8.46154 0
-6.92308 8.46154 0
-6.15385 8.46154 0
-5.38462 8.46154 0
-4.61538 8.46154 0
-3.84615 8.46154 0
-3.07692 8.46154 0
-2.30769 8.46154 0
-1.53846 8.46154 0
-0.769231 8.46154 0
5.55112e-016 8.46154 0
0.769231 8.46154 0
1.53846 8.46154 0
2.30769 8.46154 0
3.07692 8.46154 0
3.84615 8.46154 0
4.61538 8.46154 0
5.38462 8.46154 0
6.15385 8.46154 0
6.92308 8.46154 0
7.69231 8.46154 0
8.46154 8.46154 0
10 8.46154 0
-10 10 0
-9.23077 10 0
-8.46154 10 0
-7.69231 10 0
-6.92308 10 0
-6.15385 10 0
-5.38462 10 0
-4.61538 10 0
-3.84615 10 0
-3.07692 10 0
-2.30769 10 0
-1.53846 10 0
-0.769231 10 0
5.55112e-016 10 0
0.769231 10 0
1.53846 10 0
2.30769 10 0
3.07692 10 0
3.84615 10 0
4.61538 10 0
5.38462 10 0
6.15385 10 0
6.92308 10 0
7.69231 10 0
8.46154 10 0
10 10 0

POINT_DATA 676
SCALARS h double 1
LOOkUP_TABLE default
0.0122788
0.0465175
0.0693537
0.0715966
0.0824698
0.108324
0.140457
0.165926
0.173004
0.157483
0.124957
0.0863385
0.0530171
0.0302808
0.0166932
0.00900611
0.00471434
0.00232014
0.00101816
0.000364624
8.33623e-005
6.01887e-006
5.57323e-005
0.000338418
0.00199854
0.0122788
0.0205881
0.0644162
0.105865
0.135586
0.183543
0.257471
0.340343
0.404776
0.425687
0.393101
0.318599
0.228376
0.147642
0.0884416
0.0502075
0.0273052
0.0141495
0.0068212
0.00292593
0.0010308
0.000239234
1.19189e-005
6.1901e-005
0.000429153
0.00299569
0.0205881
0.0477832
0.117707
0.189683
0.258106
0.365701
0.528974
0.718024
0.877353
0.950498
0.906496
0.759725
0.56294
0.37419
0.22745
0.128652
0.0683935
0.0341029
0.015676
0.0064013
0.00215887
0.000496454
1.61642e-005
0.000164752
0.00126026
0.0110243
0.0477832
0.0922946
0.204061
0.315267
0.420402
0.587098
0.858365
1.19957
1.51914
1.70709
1.68456
1.45344
1.10005
0.738242
0.445937
0.245995
0.12508
0.0586334
0.0250302
0.00943518
0.00292824
0.00060071
4.23071e-005
0.000368475
0.00347133
0.0253035
0.0922946
0.131763
0.282662
0.423944
0.537389
0.711547
1.03208
1.48629
1.9642
2.30135
2.35195
2.08089
1.59487
1.06725
0.63105
0.33364
0.158977
0.0683152
0.0262201
0.00875461
0.00237906
0.000447948
0.000111946
0.000484845
0.00551105
0.037643
0.131763
0.135838
0.295861
0.438841
0.523867
0.634302
0.885516
1.30801
1.81635
2.23581
2.37744
2.15851
1.6699
1.10671
0.634186
0.31715
0.13918
0.0535242
0.0178225
0.00498011
0.00107317
0.00012707
5.87685e-005
0.000474668
0.00534845
0.0376922
0.135838
0.10307
0.235603
0.352677
0.398278
0.426423
0.542788
0.805004
1.17862
1.53892
1.71825
1.61195
1.26417
0.831233
0.461458
0.217766
0.0875944
0.0298685
0.00845711
0.00187651
0.000262685
-9.75101e-006
4.19918e-005
0.000320221
0.00342954
0.0264026
0.10307
0.060405
0.149889
0.231389
0.251485
0.234045
0.250643
0.351784
0.537773
0.751321
0.892362
0.877143
0.70734
0.468428
0.25621
0.116443
0.044071
0.0138018
0.0034877
0.000658692
7.32207e-005
9.99582e-006
1.57315e-005
0.000109058
0.00147661
0.0134807
0.060405
0.0281966
0.0813632
0.132579
0.142241
0.116646
0.0972013
0.114026
0.173988
0.260428
0.33371
0.35033
0.297497
0.204565
0.114905
0.0534335
0.0209248
0.00705355
0.00209067
0.00052298
7.94622e-005
1.3915e-005
8.40729e-005
0.000225694
0.000543462
0.00485408
0.0281966
0.0105733
0.0397966
0.0702168
0.0765309
0.0576109
0.0366675
0.0299194
0.0399912
0.0628396
0.0878874
0.100589
0.0926007
0.0690246
0.04265
0.0227574
0.011094
0.00518532
0.00231527
0.000920592
0.000399544
0.000374813
0.000726323
0.000997376
0.00097476
0.00134622
0.0105733
0.00675975
0.0214285
0.0344751
0.0401189
0.0293477
0.0151556
0.00754225
0.0065949
0.0101221
0.0156888
0.0202056
0.0211618
0.0184389
0.0139837
0.00959842
0.00585628
0.00284674
0.000949468
0.000433584
0.000491935
0.000962606
0.00184141
0.00258129
0.00242152
0.00141536
0.00675975
0.00727908
0.0173515
0.0149976
0.0200577
0.0153802
0.00710235
0.00231086
0.000972722
0.00149769
0.00260559
0.00398879
0.00520401
0.00583118
0.00561778
0.00450164
0.00274172
0.00102108
0.000172422
0.000136329
0.000519719
0.00155699
0.00332267
0.00484691
0.00442138
0.00226576
0.00727908
0.00725197
0.0166113
0.00702377
0.00925019
0.00816942
0.00377928
0.00112229
0.000615215
0.000986897
0.00153349
0.00225791
0.00300266
0.00346792
0.00333659
0.00252152
0.0013391
0.000367941
1.64501e-005
0.000135638
0.000663344
0.00222496
0.00499438
0.00735196
0.00646801
0.00297476
0.00725197
0.00636714
0.0151023
0.00501952
0.00426157
0.00453399
0.00243322
0.00111268
0.00109246
0.00150068
0.00198719
0.00248109
0.00284612
0.00288686
0.0024561
0.00162873
0.00074053
0.000161476
-1.36432e-005
0.000157247
0.00081069
0.00282191
0.00646613
0.00945937
0.0080383
0.0033625
0.00636714
0.00539128
0.0134036
0.00492699
0.00302362
0.00309832
0.00214422
0.00163658
0.00191758
0.00244358
0.00291566
0.00318546
0.00315029
0.00275443
0.00203429
0.00117723
0.000468379
9.53935e-005
1.70273e-005
0.000177026
0.000899295
0.00316157
0.00730074
0.0105875
0.00875896
0.00343641
0.00539128
0.00475453
0.0124672
0.00600808
0.00364652
0.00308076
0.00254618
0.00253822
0.00313131
0.00384989
0.00430643
0.00429135
0.00377557
0.00289122
0.00186423
0.000947389
0.000336016
6.65382e-005
2.63094e-005
0.000184763
0.000924592
0.00319374
0.00732466
0.0105105
0.00853054
0.0032544
0.00475453
0.00473492
0.0126405
0.00765761
0.00494428
0.0038198
0.00340667
0.00380246
0.00479805
0.00577413
0.00619191
0.00580117
0.0046956
0.00324222
0.00186351
0.000846571
0.000275987
5.64398e-005
1.76984e-005
0.000157683
0.000871475
0.00300411
0.00681038
0.00963742
0.00769876
0.00298436
0.00473492
0.00612318
0.0138946
0.00974499
0.00649959
0.00488016
0.00457656
0.00548152
0.0070396
0.00832117
0.00862493
0.00771885
0.00588733
0.00376896
0.00197976
0.000821744
0.000258344
6.71999e-005
2.78668e-005
9.38725e-005
0.000676217
0.0026034
0.00606576
0.00864489
0.00696015
0.00306446
0.00612318
0.00981204
0.0175419
0.01276
0.00828748
0.00601485
0.00590329
0.00763818
0.0101362
0.0118375
0.0117851
0.0100833
0.00733725
0.00446127
0.00223559
0.000911803
0.000277374
0.000101615
0.000162708
0.000187709
0.000465184
0.00186531
0.00499909
0.00757456
0.0065684
0.00390463
0.00981204
0.0154519
0.0242878
0.0174842
0.0105447
0.00700076
0.00690466
0.00981868
0.0139833
0.0170739
0.0163643
0.0130626
0.00918115
0.00561023
0.00276213
0.00118762
0.000532661
0.000420796
0.000476478
0.000546612
0.000797353
0.00162161
0.00343458
0.0060027
0.0060114
0.00530156
0.0154519
0.0209849
0.0335698
0.024611
0.0137627
0.00772973
0.00667083
0.0101666
0.0162318
0.0234999
0.0245374
0.0176286
0.0105654
0.0068644
0.00394016
0.00234436
0.00167202
0.00134169
0.0011069
0.000899178
0.000827698
0.00117022
0.00224645
0.00384297
0.00473612
0.00603663
0.0209849
0.0239257
0.0430783
0.0339258
0.018363
0.00835308
0.00479218
0.00487729
0.0104577
0.0179629
0.0313868
0.0266489
0.01211
0.00294829
0.00160352
0.00121405
0.00101024
0.000834736
0.000677695
0.000541276
0.000436222
0.000441276
0.000735761
0.00157545
0.0027073
0.00511929
0.0239257
0.0227643
0.0486826
0.0421995
0.0222036
0.00720188
0.00112317
0.00157779
0.00491901
0.00510036
0.00202745
0.00545393
0.0109917
0.007424
0.00174262
0.000311315
0.000143515
0.00010954
7.00981e-005
3.42169e-005
1.29414e-005
3.95748e-005
1.29045e-005
0.000187704
0.000906006
0.003465
0.0227643
0.019212
0.0506256
0.0512179
0.0306057
0.0162843
0.013867
0.0182623
0.0235711
0.0252912
0.0234234
0.0223924
0.0188302
0.0107999
0.00484194
0.00225052
0.0011538
0.000605253
0.000302597
0.000133406
4.62299e-005
1.07166e-005
1.20242e-005
9.54122e-005
0.000533463
0.00287892
0.019212
0.0154992
0.0481684
0.058672
0.0447281
0.0375882
0.043495
0.0562945
0.0683202
0.0730163
0.0680515
0.0559438
0.0389592
0.0226356
0.011894
0.00615739
0.00320153
0.0016459
0.000804269
0.00035086
0.000122809
2.66532e-005
7.73797e-006
7.07895e-005
0.000425667
0.00248336
0.0154992
0.0122788
0.0465175
0.0693537
0.0715966
0.0824698
0.108324
0.140457
0.165926
0.173004
0.157483
0.124957
0.0863385
0.0530171
0.0302808
0.0166932
0.00900611
0.00471434
0.00232014
0.00101816
0.000364624
8.33623e-005
6.01887e-006
5.57323e-005
0.000338418
0.00199854
0.0122788

VECTORS u double
0.403774 42.59 0.0
-9.94289 50.0435 0.0
-19.618 54.8344 0.0
-34.2296 58.5738 0.0
-51.0986 59.977 0.0
-61.3625 60.0648 0.0
-66.8373 60.3963 0.0
-71.5313 61.022 0.0
-76.7709 61.639 0.0
-82.6589 62.0617 0.0
-88.8981 62.2359 0.0
-94.9499 62.1291 0.0
-99.7761 61.5062 0.0
-102.25 60.1266 0.0
-102.521 58.0767 0.0
-101.173 55.5647 0.0
-98.7844 52.8504 0.0
-95.7053 50.146 0.0
-91.8792 47.5474 0.0
-86.5572 45.0047 0.0
-75.5142 41.8445 0.0
101.445 18.7385 0.0
30.3296 34.6803 0.0
18.1565 36.7795 0.0
7.76016 39.4587 0.0
0.403774 42.59 0.0
-11.8098 59.5208 0.0
-18.9773 63.2402 0.0
-28.6001 66.4065 0.0
-42.3351 68.0342 0.0
-55.1904 67.9288 0.0
-63.1397 68.0496 0.0
-68.3515 68.8685 0.0
-73.2237 69.8296 0.0
-78.6638 70.4951 0.0
-84.6843 70.6475 0.0
-90.7874 70.1997 0.0
-96.2121 69.109 0.0
-100.18 67.3066 0.0
-102.298 64.7919 0.0
-102.674 61.6963 0.0
-101.677 58.2594 0.0
-99.7238 54.7687 0.0
-97.0782 51.465 0.0
-93.6673 48.487 0.0
-88.7051 45.8651 0.0
-77.7396 43.3497 0.0
91.798 35.1415 0.0
22.8897 47.1411 0.0
12.5182 50.2232 0.0
-0.305847 54.179 0.0
-11.8098 59.5208 0.0
-22.9567 68.3691 0.0
-28.2808 70.6187 0.0
-35.9634 72.0073 0.0
-46.6044 71.4627 0.0
-56.8674 70.2733 0.0
-64.118 70.4512 0.0
-69.4026 71.7176 0.0
-74.3036 73.0801 0.0
-79.5951 73.9001 0.0
-85.323 73.8754 0.0
-91.0252 72.9052 0.0
-96.0121 70.9963 0.0
-99.6829 68.2143 0.0
-101.772 64.6938 0.0
-102.358 60.6483 0.0
-101.725 56.3569 0.0
-100.195 52.1168 0.0
-97.9856 48.1798 0.0
-95.0807 44.7205 0.0
-90.9364 41.8522 0.0
-82.9572 39.7435 0.0
129.443 57.3904 0.0
19.1395 63.5093 0.0
-3.75497 63.0216 0.0
-17.2306 66.2623 0.0
-22.9567 68.3691 0.0
-28.5277 67.4629 0.0
-33.4867 69.4763 0.0
-39.7565 70.2511 0.0
-48.1384 68.9409 0.0
-57.2026 67.3075 0.0
-64.5969 67.5357 0.0
-70.2428 69.1401 0.0
-75.2353 70.8401 0.0
-80.3506 71.8286 0.0
-85.7381 71.7383 0.0
-91.042 70.465 0.0
-95.677 68.0588 0.0
-99.1392 64.6627 0.0
-101.209 60.4862 0.0
-101.953 55.7916 0.0
-101.606 50.8746 0.0
-100.422 46.0296 0.0
-98.5613 41.5132 0.0
-95.9647 37.5345 0.0
-92.0457 34.2985 0.0
-84.5814 32.243 0.0
74.1029 66.625 0.0
8.31453 64.4201 0.0
-14.5693 63.6889 0.0
-23.5367 65.5385 0.0
-28.5277 67.4629 0.0
-30.8435 61.8363 0.0
-35.6513 63.4563 0.0
-41.0565 63.9783 0.0
-47.9089 62.5606 0.0
-56.3029 60.7004 0.0
-64.2693 60.8329 0.0
-70.572 62.6273 0.0
-75.8165 64.5932 0.0
-80.8441 65.7778 0.0
-85.9547 65.7592 0.0
-90.9208 64.4183 0.0
-95.26 61.8173 0.0
-98.5412 58.1335 0.0
-100.578 53.6157 0.0
-101.433 48.5512 0.0
-101.311 43.2385 0.0
-100.425 37.9573 0.0
-98.8968 32.949 0.0
-96.6347 28.429 0.0
-92.7573 24.7089 0.0
-78.9107 23.7898 0.0
-2.65012 48.6578 0.0
1.57693 59.9355 0.0
-18.3683 59.0069 0.0
-25.9616 60.3286 0.0
-30.8435 61.8363 0.0
-31.0683 55.122 0.0
-35.7867 56.1474 0.0
-40.6686 56.3772 0.0
-46.3599 54.99 0.0
-54.0184 52.9145 0.0
-62.6925 52.6948 0.0
-69.9766 54.4506 0.0
-75.6973 56.5491 0.0
-80.7773 57.9002 0.0
-85.7205 58.0387 0.0
-90.4449 56.8205 0.0
-94.5667 54.2911 0.0
-97.7168 50.6267 0.0
-99.7352 46.0846 0.0
-100.685 40.9565 0.0
-100.75 35.5301 0.0
-100.113 30.0584 0.0
-98.8607 24.7419 0.0
-96.8024 19.7208 0.0
-92.5958 14.9856 0.0
-73.3857 9.69384 0.0
21.1219 41.4924 0.0
0.586288 48.9268 0.0
-18.7521 53.0511 0.0
-26.1915 54.2474 0.0
-31.0683 55.122 0.0
-29.7329 49.7888 0.0
-34.3952 50.1787 0.0
-38.9869 50.0261 0.0
-43.8091 48.6089 0.0
-50.3877 46.2814 0.0
-59.5021 45.3922 0.0
-68.1003 46.8039 0.0
-74.586 48.844 0.0
-79.8785 50.2555 0.0
-84.7722 50.547 0.0
-89.3622 49.5579 0.0
-93.3606 47.3021 0.0
-96.4497 43.9266 0.0
-98.4902 39.6683 0.0
-99.5424 34.8026 0.0
-99.7715 29.5961 0.0
-99.3321 24.2726 0.0
-98.2569 18.9879 0.0
-96.2123 13.7699 0.0
-90.1852 7.71403 0.0
-237.658 46.8317 0.0
15.9362 -2.00027 0.0
1.4844 24.7247 0.0
-17.6045 46.7141 0.0
-24.8877 49.5001 0.0
-29.7329 49.7888 0.0
-26.9888 46.4836 0.0
-31.6869 46.493 0.0
-36.1958 46.0336 0.0
-40.4985 44.5324 0.0
-45.795 41.9692 0.0
-54.5192 40.1153 0.0
-64.633 40.7867 0.0
-72.2738 42.5694 0.0
-77.9305 43.9048 0.0
-82.8343 44.2609 0.0
-87.3296 43.4858 0.0
-91.2266 41.5684 0.0
-94.2416 38.6128 0.0
-96.2354 34.8155 0.0
-97.247 30.4198 0.0
-97.4049 25.6715 0.0
-96.822 20.7883 0.0
-95.5048 15.9378 0.0
-92.9792 11.0714 0.0
-82.8301 4.20509 0.0
-39.6312 1.33598 0.0
30.7742 -7.83307 0.0
0.797071 9.39891 0.0
-15.9514 41.5431 0.0
-22.2753 46.4517 0.0
-26.9888 46.4836 0.0
-21.7166 42.8266 0.0
-27.1976 43.9378 0.0
-32.2682 44.05 0.0
-36.475 42.5975 0.0
-40.7666 39.9283 0.0
-47.9703 37.0543 0.0
-59.1801 36.4299 0.0
-68.5155 37.7201 0.0
-74.6735 38.8664 0.0
-79.4761 39.1555 0.0
-83.6631 38.4549 0.0
-87.1225 36.7394 0.0
-89.5021 34.0556 0.0
-90.4808 30.5218 0.0
-89.7691 26.2953 0.0
-86.9869 21.5489 0.0
-81.6947 16.5284 0.0
-73.9892 11.7705 0.0
-65.1698 8.2338 0.0
-50.4092 6.04328 0.0
53.9377 2.37498 0.0
8.00583 6.52808 0.0
-7.82058 7.42618 0.0
-12.0012 26.4989 0.0
-17.3969 41.8682 0.0
-21.7166 42.8266 0.0
-8.54548 28.8565 0.0
-18.2424 36.9926 0.0
-26.7848 42.5188 0.0
-31.6397 42.0352 0.0
-35.5191 39.5071 0.0
-40.7748 35.9764 0.0
-51.2892 33.4778 0.0
-62.7117 33.7354 0.0
-69.503 34.5651 0.0
-73.804 34.6319 0.0
-76.9946 33.76 0.0
-78.9329 31.8948 0.0
-78.905 28.9896 0.0
-75.9916 25.0501 0.0
-69.2969 20.1991 0.0
-58.7292 14.8262 0.0
-46.2429 9.59803 0.0
-35.1103 5.07365 0.0
-28.2808 3.06272 0.0
-21.9615 6.50395 0.0
-10.4515 9.29971 0.0
-10.3234 9.47945 0.0
-11.1958 10.1863 0.0
-10.5216 10.7814 0.0
-8.64511 23.5029 0.0
-8.54548 28.8565 0.0
5.15838 10.7718 0.0
-3.8632 19.6003 0.0
-19.1695 38.4136 0.0
-26.056 41.8596 0.0
-29.9751 39.972 0.0
-33.9153 36.3075 0.0
-41.3692 31.934 0.0
-53.0556 29.6312 0.0
-59.7756 29.6553 0.0
-62.5468 29.2272 0.0
-63.3539 27.8172 0.0
-61.8613 25.3208 0.0
-57.1868 21.7363 0.0
-49.1657 17.3962 0.0
-39.4372 13.04 0.0
-30.6961 9.22801 0.0
-23.8553 5.37232 0.0
-16.2612 -1.71914 0.0
-13.3362 -0.321397 0.0
-12.0985 6.34472 0.0
-10.8128 10.465 0.0
-11.5233 11.8498 0.0
-11.7743 12.5732 0.0
-11.0769 12.4315 0.0
-7.2915 11.6879 0.0
5.15838 10.7718 0.0
7.22287 9.30567 0.0
2.54546 10.8887 0.0
-9.80944 29.1486 0.0
-20.1096 40.9996 0.0
-24.2244 40.6149 0.0
-27.3664 37.1164 0.0
-31.0767 31.3222 0.0
-33.8034 22.7779 0.0
-33.533 21.1814 0.0
-34.0527 20.0336 0.0
-33.0654 18.3858 0.0
-30.4317 16.1788 0.0
-26.7571 13.7378 0.0
-23.1512 11.4579 0.0
-20.3422 9.4441 0.0
-18.2318 7.3929 0.0
-15.912 4.06727 0.0
-8.59593 -13.8085 0.0
-9.62503 4.82504 0.0
-10.78 10.2747 0.0
-11.3178 12.7362 0.0
-12.0082 13.8297 0.0
-12.1809 14.3073 0.0
-11.6702 14.1376 0.0
-8.18913 12.889 0.0
7.22287 9.30567 0.0
8.02765 10.216 0.0
3.65231 10.8482 0.0
-1.04393 17.2555 0.0
-14.0821 38.4427 0.0
-18.4931 40.5449 0.0
-20.7719 37.1668 0.0
-20.4074 29.5941 0.0
-12.7109 21.365 0.0
-11.8912 19.8265 0.0
-12.3979 17.9162 0.0
-13.3972 16.1812 0.0
-14.4727 14.5872 0.0
-15.3454 13.0761 0.0
-15.8684 11.5769 0.0
-15.9732 9.99181 0.0
-15.6248 8.15301 0.0
-14.6075 5.42483 0.0
4.97188 -36.4929 0.0
-9.95877 9.99907 0.0
-11.1124 13.3963 0.0
-11.7146 14.5651 0.0
-12.2923 15.2914 0.0
-12.5539 15.6234 0.0
-12.2926 15.4809 0.0
-9.26383 14.2816 0.0
8.02765 10.216 0.0
8.90986 11.3229 0.0
4.28738 11.9949 0.0
2.18834 13.7753 0.0
-8.12018 33.1312 0.0
-13.2165 38.4622 0.0
-15.0245 35.1838 0.0
-13.6271 28.3237 0.0
-11.2029 25.3925 0.0
-10.7487 23.8677 0.0
-11.0267 22.0331 0.0
-11.9769 19.9981 0.0
-13.2776 17.9258 0.0
-14.5074 15.9174 0.0
-15.3654 13.9742 0.0
-15.7249 12.0302 0.0
-15.5905 9.99111 0.0
-15.1461 8.1373 0.0
-7.69577 -27.2323 0.0
-10.6342 13.8826 0.0
-11.2575 14.9933 0.0
-11.8682 15.7436 0.0
-12.4738 16.3368 0.0
-12.8826 16.6435 0.0
-12.8568 16.5566 0.0
-10.3714 15.5166 0.0
8.90986 11.3229 0.0
9.5005 12.8405 0.0
4.53523 13.6942 0.0
1.4224 16.8244 0.0
-5.39135 28.4457 0.0
-10.3659 34.5581 0.0
-12.6225 32.4087 0.0
-12.6359 29.0708 0.0
-11.6734 27.9472 0.0
-11.2315 26.9846 0.0
-11.4889 25.6477 0.0
-12.4028 23.8708 0.0
-13.672 21.7399 0.0
-14.8849 19.426 0.0
-15.745 17.0796 0.0
-16.1286 14.7602 0.0
-16.0446 12.4618 0.0
-15.5018 10.5426 0.0
-10.2818 20.042 0.0
-10.8609 15.2158 0.0
-11.3775 15.9233 0.0
-11.9848 16.5565 0.0
-12.6292 17.1219 0.0
-13.1514 17.4539 0.0
-13.2867 17.4304 0.0
-11.176 16.5867 0.0
9.5005 12.8405 0.0
9.32617 14.9751 0.0
3.87493 16.2049 0.0
-1.01647 21.56 0.0
-7.27819 29.4041 0.0
-11.2037 32.6572 0.0
-13.1731 31.6665 0.0
-13.1049 30.3554 0.0
-12.2481 29.8605 0.0