# vtk DataFile Version 2.0
Particulate Flow Equations Solution
ASCII
DATASET STRUCTURED_GRID
DIMENSIONS 26 26 1
POINTS 676 double
-10 -10 0
-9.23077 -10 0
-8.46154 -10 0
-7.69231 -10 0
-6.92308 -10 0
-6.15385 -10 0
-5.38462 -10 0
-4.61538 -10 0
-3.84615 -10 0
-3.07692 -10 0
-2.30769 -10 0
-1.53846 -10 0
-0.769231 -10 0
5.55112e-016 -10 0
0.769231 -10 0
1.53846 -10 0
2.30769 -10 0
3.07692 -10 0
3.84615 -10 0
4.61538 -10 0
5.38462 -10 0
6.15385 -10 0
6.92308 -10 0
7.69231 -10 0
8.46154 -10 0
10 -10 0
-10 -9.23077 0
-9.23077 -9.23077 0
-8.46154 -9.23077 0
-7.69231 -9.23077 0
-6.92308 -9.23077 0
-6.15385 -9.23077 0
-5.38462 -9.23077 0
-4.61538 -9.23077 0
-3.84615 -9.23077 0
-3.07692 -9.23077 0
-2.30769 -9.23077 0
-1.53846 -9.23077 0
-0.769231 -9.23077 0
5.55112e-016 -9.23077 0
0.769231 -9.23077 0
1.53846 -9.23077 0
2.30769 -9.23077 0
3.07692 -9.23077 0
3.84615 -9.23077 0
4.61538 -9.23077 0
5.38462 -9.23077 0
6.15385 -9.23077 0
6.92308 -9.23077 0
7.69231 -9.23077 0
8.46154 -9.23077 0
10 -9.23077 0
-10 -8.46154 0
-9.23077 -8.46154 0
-8.46154 -8.46154 0
-7.69231 -8.46154 0
-6.92308 -8.46154 0
-6.15385 -8.46154 0
-5.38462 -8.46154 0
-4.61538 -8.46154 0
-3.84615 -8.46154 0
-3.07692 -8.46154 0
-2.30769 -8.46154 0
-1.53846 -8.46154 0
-0.769231 -8.46154 0
5.55112e-016 -8.46154 0
0.769231 -8.46154 0
1.53846 -8.46154 0
2.30769 -8.46154 0
3.07692 -8.46154 0
3.84615 -8.46154 0
4.61538 -8.46154 0
5.38462 -8.46154 0
6.15385 -8.46154 0
6.92308 -8.46154 0
7.69231 -8.46154 0
8.46154 -8.46154 0
10 -8.46154 0
-10 -7.69231 0
-9.23077 -7.69231 0
-8.46154 -7.69231 0
-7.69231 -7.69231 0
-6.92308 -7.69231 0
-6.15385 -7.69231 0
-5.38462 -7.69231 0
-4.61538 -7.69231 0
-3.84615 -7.69231 0
-3.07692 -7.69231 0
-2.30769 -7.69231 0
-1.53846 -7.69231 0
-0.769231 -7.69231 0
5.55112e-016 -7.69231 0
0.769231 -7.69231 0
1.53846 -7.69231 0
2.30769 -7.69231 0
3.07692 -7.69231 0
3.84615 -7.69231 0
4.61538 -7.69231 0
5.38462 -7.69231 0
6.15385 -7.69231 0
6.92308 -7.69231 0
7.69231 -7.69231 0
8.46154 -7.69231 0
10 -7.69231 0
-10 -6.92308 0
-9.23077 -6.92308 0
-8.46154 -6.92308 0
-7.69231 -6.92308 0
-6.92308 -6.92308 0
-6.15385 -6.92308 0
-5.38462 -6.92308 0
-4.61538 -6.92308 0
-3.84615 -6.92308 0
-3.07692 -6.92308 0
-2.30769 -6.92308 0
-1.53846 -6.92308 0
-0.769231 -6.92308 0
5.55112e-016 -6.92308 0
0.769231 -6.92308 0
1.53846 -6.92308 0
2.30769 -6.92308 0
3.07692 -6.92308 0
3.84615 -6.92308 0
4.61538 -6.92308 0
5.38462 -6.92308 0
6.15385 -6.92308 0
6.92308 -6.92308 0
7.69231 -6.92308 0
8.46154 -6.92308 0
10 -6.92308 0
-10 -6.15385 0
-9.23077 -6.15385 0
-8.46154 -6.15385 0
-7.69231 -6.15385 0
-6.92308 -6.15385 0
-6.15385 -6.15385 0
-5.38462 -6.15385 0
-4.61538 -6.15385 0
-3.84615 -6.15385 0
-3.07692 -6.15385 0
-2.30769 -6.15385 0
-1.53846 -6.15385 0
-0.769231 -6.15385 0
5.55112e-016 -6.15385 0
0.769231 -6.15385 0
1.53846 -6.15385 0
2.30769 -6.15385 0
3.07692 -6.15385 0
3.84615 -6.15385 0
4.61538 -6.15385 0
5.38462 -6.15385 0
6.15385 -6.15385 0
6.92308 -6.15385 0
7.69231 -6.15385 0
8.46154 -6.15385 0
10 -6.15385 0
-10 -5.38462 0
-9.23077 -5.38462 0
-8.46154 -5.38462 0
-7.69231 -5.38462 0
-6.92308 -5.38462 0
-6.15385 -5.38462 0
-5.38462 -5.38462 0
-4.61538 -5.38462 0
-3.84615 -5.38462 0
-3.07692 -5.38462 0
-2.30769 -5.38462 0
-1.53846 -5.38462 0
-0.769231 -5.38462 0
5.55112e-016 -5.38462 0
0.769231 -5.38462 0
1.53846 -5.38462 0
2.30769 -5.38462 0
3.07692 -5.38462 0
3.84615 -5.38462 0
4.61538 -5.38462 0
5.38462 -5.38462 0
6.15385 -5.38462 0
6.92308 -5.38462 0
7.69231 -5.38462 0
8.46154 -5.38462 0
10 -5.38462 0
-10 -4.61538 0
-9.23077 -4.61538 0
-8.46154 -4.61538 0
-7.69231 -4.61538 0
-6.92308 -4.61538 0
-6.15385 -4.61538 0
-5.38462 -4.61538 0
-4.61538 -4.61538 0
-3.84615 -4.61538 0
-3.07692 -4.61538 0
-2.30769 -4.61538 0
-1.53846 -4.61538 0
-0.769231 -4.61538 0
5.55112e-016 -4.61538 0
0.769231 -4.61538 0
1.53846 -4.61538 0
2.30769 -4.61538 0
3.07692 -4.61538 0
3.84615 -4.61538 0
4.61538 -4.61538 0
5.38462 -4.61538 0
6.15385 -4.61538 0
6.92308 -4.61538 0
7.69231 -4.61538 0
8.46154 -4.61538 0
10 -4.61538 0
-10 -3.84615 0
-9.23077 -3.84615 0
-8.46154 -3.84615 0
-7.69231 -3.84615 0
-6.92308 -3.84615 0
-6.15385 -3.84615 0
-5.38462 -3.84615 0
-4.61538 -3.84615 0
-3.84615 -3.84615 0
-3.07692 -3.84615 0
-2.30769 -3.84615 0
-1.53846 -3.84615 0
-0.769231 -3.84615 0
5.55112e-016 -3.84615 0
0.769231 -3.84615 0
1.53846 -3.84615 0
2.30769 -3.84615 0
3.07692 -3.84615 0
3.84615 -3.84615 0
4.61538 -3.84615 0
5.38462 -3.84615 0
6.15385 -3.84615 0
6.92308 -3.84615 0
7.69231 -3.84615 0
8.46154 -3.84615 0
10 -3.84615 0
-10 -3.07692 0
-9.23077 -3.07692 0
-8.46154 -3.07692 0
-7.69231 -3.07692 0
-6.92308 -3.07692 0
-6.15385 -3.07692 0
-5.38462 -3.07692 0
-4.61538 -3.07692 0
-3.84615 -3.07692 0
-3.07692 -3.07692 0
-2.30769 -3.07692 0
-1.53846 -3.07692 0
-0.769231 -3.07692 0
5.55112e-016 -3.07692 0
0.769231 -3.07692 0
1.53846 -3.07692 0
2.30769 -3.07692 0
3.07692 -3.07692 0
3.84615 -3.07692 0
4.61538 -3.07692 0
5.38462 -3.07692 0
6.15385 -3.07692 0
6.92308 -3.07692 0
7.69231 -3.07692 0
8.46154 -3.07692 0
10 -3.07692 0
-10 -2.30769 0
-9.23077 -2.30769 0
-8.46154 -2.30769 0
-7.69231 -2.30769 0
-6.92308 -2.30769 0
-6.15385 -2.30769 0
-5.38462 -2.30769 0
-4.61538 -2.30769 0
-3.84615 -2.30769 0
-3.07692 -2.30769 0
-2.30769 -2.30769 0
-1.53846 -2.30769 0
-0.769231 -2.30769 0
5.55112e-016 -2.30769 0
0.769231 -2.30769 0
1.53846 -2.30769 0
2.30769 -2.30769 0
3.07692 -2.30769 0
3.84615 -2.30769 0
4.61538 -2.30769 0
5.38462 -2.30769 0
6.15385 -2.30769 0
6.92308 -2.30769 0
7.69231 -2.30769 0
8.46154 -2.30769 0
10 -2.30769 0
-10 -1.53846 0
-9.23077 -1.53846 0
-8.46154 -1.53846 0
-7.69231 -1.53846 0
-6.92308 -1.53846 0
-6.15385 -1.53846 0
-5.38462 -1.53846 0
-4.61538 -1.53846 0
-3.84615 -1.53846 0
-3.07692 -1.53846 0
-2.30769 -1.53846 0
-1.53846 -1.53846 0
-0.769231 -1.53846 0
5.55112e-016 -1.53846 0
0.769231 -1.53846 0
1.53846 -1.53846 0
2.30769 -1.53846 0
3.07692 -1.53846 0
3.84615 -1.53846 0
4.61538 -1.53846 0
5.38462 -1.53846 0
6.15385 -1.53846 0
6.92308 -1.53846 0
7.69231 -1.53846 0
8.46154 -1.53846 0
10 -1.53846 0
-10 -0.769231 0
-9.23077 -0.769231 0
-8.46154 -0.769231 0
-7.69231 -0.769231 0
-6.92308 -0.769231 0
-6.15385 -0.769231 0
-5.38462 -0.769231 0
-4.61538 -0.769231 0
-3.84615 -0.769231 0
-3.07692 -0.769231 0
-2.30769 -0.769231 0
-1.53846 -0.769231 0
-0.769231 -0.769231 0
5.55112e-016 -0.769231 0
0.769231 -0.769231 0
1.53846 -0.769231 0
2.30769 -0.769231 0
3.07692 -0.769231 0
3.84615 -0.769231 0
4.61538 -0.769231 0
5.38462 -0.769231 0
6.15385 -0.769231 0
6.92308 -0.769231 0
7.69231 -0.769231 0
8.46154 -0.769231 0
10 -0.769231 0
-10 5.55112e-016 0
-9.23077 5.55112e-016 0
-8.46154 5.55112e-016 0
-7.69231 5.55112e-016 0
-6.92308 5.55112e-016 0
-6.15385 5.55112e-016 0
-5.38462 5.55112e-016 0
-4.61538 5.55112e-016 0
-3.84615 5.55112e-016 0
-3.07692 5.55112e-016 0
-2.30769 5.55112e-016 0
-1.53846 5.55112e-016 0
-0.769231 5.55112e-016 0
5.55112e-016 5.55112e-016 0
0.769231 5.55112e-016 0
1.53846 5.55112e-016 0
2.30769 5.55112e-016 0
3.07692 5.55112e-016 0
3.84615 5.55112e-016 0
4.61538 5.55112e-016 0
5.38462 5.55112e-016 0
6.15385 5.55112e-016 0
6.92308 5.55112e-016 0
7.69231 5.55112e-016 0
8.46154 5.55112e-016 0
10 5.55112e-016 0
-10 0.769231 0
-9.23077 0.769231 0
-8.46154 0.769231 0
-7.69231 0.769231 0
-6.92308 0.769231 0
-6.15385 0.769231 0
-5.38462 0.769231 0
-4.61538 0.769231 0
-3.84615 0.769231 0
-3.07692 0.769231 0
-2.30769 0.769231 0
-1.53846 0.769231 0
-0.769231 0.769231 0
5.55112e-016 0.769231 0
0.769231 0.769231 0
1.53846 0.769231 0
2.30769 0.769231 0
3.07692 0.769231 0
3.84615 0.769231 0
4.61538 0.769231 0
5.38462 0.769231 0
6.15385 0.769231 0
6.92308 0.769231 0
7.69231 0.769231 0
8.46154 0.769231 0
10 0.769231 0
-10 1.53846 0
-9.23077 1.53846 0
-8.46154 1.53846 0
-7.69231 1.53846 0
-6.92308 1.53846 0
-6.15385 1.53846 0
-5.38462 1.53846 0
-4.61538 1.53846 0
-3.84615 1.53846 0
-3.07692 1.53846 0
-2.30769 1.53846 0
-1.53846 1.53846 0
-0.769231 1.53846 0
5.55112e-016 1.53846 0
0.769231 1.53846 0
1.53846 1.53846 0
2.30769 1.53846 0
3.07692 1.53846 0
3.84615 1.53846 0
4.61538 1.53846 0
5.38462 1.53846 0
6.15385 1.53846 0
6.92308 1.53846 0
7.69231 1.53846 0
8.46154 1.53846 0
10 1.53846 0
-10 2.30769 0
-9.23077 2.30769 0
-8.46154 2.30769 0
-7.69231 2.30769 0
-6.92308 2.30769 0
-6.15385 2.30769 0
-5.38462 2.30769 0
-4.61538 2.30769 0
-3.84615 2.30769 0
-3.07692 2.30769 0
-2.30769 2.30769 0
-1.53846 2.30769 0
-0.769231 2.30769 0
5.55112e-016 2.30769 0
0.769231 2.30769 0
1.53846 2.30769 0
2.30769 2.30769 0
3.07692 2.30769 0
3.84615 2.30769 0
4.61538 2.30769 0
5.38462 2.30769 0
6.15385 2.30769 0
6.92308 2.30769 0
7.69231 2.30769 0
8.46154 2.30769 0
10 2.30769 0
-10 3.07692 0
-9.23077 3.07692 0
-8.46154 3.07692 0
-7.69231 3.07692 0
-6.92308 3.07692 0
-6.15385 3.07692 0
-5.38462 3.07692 0
-4.61538 3.07692 0
-3.84615 3.07692 0
-3.07692 3.07692 0
-2.30769 3.07692 0
-1.53846 3.07692 0
-0.769231 3.07692 0
5.55112e-016 3.07692 0
0.769231 3.07692 0
1.53846 3.07692 0
2.30769 3.07692 0
3.07692 3.07692 0
3.84615 3.07692 0
4.61538 3.07692 0
5.38462 3.07692 0
6.15385 3.07692 0
6.92308 3.07692 0
7.69231 3.07692 0
8.46154 3.07692 0
10 3.07692 0
-10 3.84615 0
-9.23077 3.84615 0
-8.46154 3.84615 0
-7.69231 3.84615 0
-6.92308 3.84615 0
-6.15385 3.84615 0
-5.38462 3.84615 0
-4.61538 3.84615 0
-3.84615 3.84615 0
-3.07692 3.84615 0
-2.30769 3.84615 0
-1.53846 3.84615 0
-0.769231 3.84615 0
5.55112e-016 3.84615 0
0.769231 3.84615 0
1.53846 3.84615 0
2.30769 3.84615 0
3.07692 3.84615 0
3.84615 3.84615 0
4.61538 3.84615 0
5.38462 3.84615 0
6.15385 3.84615 0
6.92308 3.84615 0
7.69231 3.84615 0
8.46154 3.84615 0
10 3.84615 0
-10 4.61538 0
-9.23077 4.61538 0
-8.46154 4.61538 0
-7.69231 4.61538 0
-6.92308 4.61538 0
-6.15385 4.61538 0
-5.38462 4.61538 0
-4.61538 4.61538 0
-3.84615 4.61538 0
-3.07692 4.61538 0
-2.30769 4.61538 0
-1.53846 4.61538 0
-0.769231 4.61538 0
5.55112e-016 4.61538 0
0.769231 4.61538 0
1.53846 4.61538 0
2.30769 4.61538 0
3.07692 4.61538 0
3.84615 4.61538 0
4.61538 4.61538 0
5.38462 4.61538 0
6.15385 4.61538 0
6.92308 4.61538 0
7.69231 4.61538 0
8.46154 4.61538 0
10 4.61538 0
-10 5.38462 0
-9.23077 5.38462 0
-8.46154 5.38462 0
-7.69231 5.38462 0
-6.92308 5.38462 0
-6.15385 5.38462 0
-5.38462 5.38462 0
-4.61538 5.38462 0
-3.84615 5.38462 0
-3.07692 5.38462 0
-2.30769 5.38462 0
-1.53846 5.38462 0
-0.769231 5.38462 0
5.55112e-016 5.38462 0
0.769231 5.38462 0
1.53846 5.38462 0
2.30769 5.38462 0
3.07692 5.38462 0
3.84615 5.38462 0
4.61538 5.38462 0
5.38462 5.38462 0
6.15385 5.38462 0
6.92308 5.38462 0
7.69231 5.38462 0
8.46154 5.38462 0
10 5.38462 0
-10 6.15385 0
-9.23077 6.15385 0
-8.46154 6.15385 0
-7.69231 6.15385 0
-6.92308 6.15385 0
-6.15385 6.15385 0
-5.38462 6.15385 0
-4.61538 6.15385 0
-3.84615 6.15385 0
-3.07692 6.15385 0
-2.30769 6.15385 0
-1.53846 6.15385 0
-0.769231 6.15385 0
5.55112e-016 6.15385 0
0.769231 6.15385 0
1.53846 6.15385 0
2.30769 6.15385 0
3.07692 6.15385 0
3.84615 6.15385 0
4.61538 6.15385 0
5.38462 6.15385 0
6.15385 6.15385 0
6.92308 6.15385 0
7.69231 6.15385 0
8.46154 6.15385 0
10 6.15385 0
-10 6.92308 0
-9.23077 6.92308 0
-8.46154 6.92308 0
-7.69231 6.92308 0
-6.92308 6.92308 0
-6.15385 6.92308 0
-5.38462 6.92308 0
-4.61538 6.92308 0
-3.84615 6.92308 0
-3.07692 6.92308 0
-2.30769 6.92308 0
-1.53846 6.92308 0
-0.769231 6.92308 0
5.55112e-016 6.92308 0
0.769231 6.92308 0
1.53846 6.92308 0
2.30769 6.92308 0
3.07692 6.92308 0
3.84615 6.92308 0
4.61538 6.92308 0
5.38462 6.92308 0
6.15385 6.92308 0
6.92308 6.92308 0
7.69231 6.92308 0
8.46154 6.92308 0
10 6.92308 0
-10 7.69231 0
-9.23077 7.69231 0
-8.46154 7.69231 0
-7.69231 7.69231 0
-6.92308 7.69231 0
-6.15385 7.69231 0
-5.38462 7.69231 0
-4.61538 7.69231 0
-3.84615 7.69231 0
-3.07692 7.69231 0
-2.30769 7.69231 0
-1.53846 7.69231 0
-0.769231 7.69231 0
5.55112e-016 7.69231 0
0.769231 7.69231 0
1.53846 7.69231 0
2.30769 7.69231 0
3.07692 7.69231 0
3.84615 7.69231 0
4.61538 7.69231 0
5.38462 7.69231 0
6.15385 7.69231 0
6.92308 7.69231 0
7.69231 7.69231 0
8.46154 7.69231 0
10 7.69231 0
-10 8.46154 0
-9.23077 8.46154 0
-8.46154 8.46154 0
-7.69231 8.46154 0
-6.92308 8.46154 0
-6.15385 8.46154 0
-5.38462 8.46154 0
-4.61538 8.46154 0
-3.84615 8.46154 0
-3.07692 8.46154 0
-2.30769 8.46154 0
-1.53846 8.46154 0
-0.769231 8.46154 0
5.55112e-016 8.46154 0
0.769231 8.46154 0
1.53846 8.46154 0
2.30769 8.46154 0
3.07692 8.46154 0
3.84615 8.46154 0
4.61538 8.46154 0
5.38462 8.46154 0
6.15385 8.46154 0
6.92308 8.46154 0
7.69231 8.46154 0
8.46154 8.46154 0
10 8.46154 0
-10 10 0
-9.23077 10 0
-8.46154 10 0
-7.69231 10 0
-6.92308 10 0
-6.15385 10 0
-5.38462 10 0
-4.61538 10 0
-3.84615 10 0
-3.07692 10 0
-2.30769 10 0
-1.53846 10 0
-0.769231 10 0
5.55112e-016 10 0
0.769231 10 0
1.53846 10 0
2.30769 10 0
3.07692 10 0
3.84615 10 0
4.61538 10 0
5.38462 10 0
6.15385 10 0
6.92308 10 0
7.69231 10 0
8.46154 10 0
10 10 0

POINT_DATA 676
SCALARS h double 1
LOOkUP_TABLE default
2.93149e-005
4.45383e-005
4.95056e-005
4.34994e-005
2.69861e-005
4.21185e-005
8.20492e-005
0.000446135
0.00763412
0.0448818
0.130319
0.261206
0.272693
0.202752
0.136772
0.0766388
0.035604
0.0136682
0.0037953
0.00053336
5.40428e-005
1.68667e-005
1.97184e-005
3.30298e-005
2.75306e-005
2.93149e-005
4.09649e-005
6.22691e-005
7.29528e-005
6.5862e-005
3.43884e-005
1.83377e-005
0.000102866
0.000694435
0.010028
0.0519483
0.135037
0.25353
0.356207
0.251108
0.138269
0.0719571
0.0332226
0.0121398
0.00295997
0.000327923
3.77039e-005
7.669e-005
3.20005e-005
4.89544e-005
4.05154e-005
4.09649e-005
4.43545e-005
6.25048e-005
7.08473e-005
6.61662e-005
5.23836e-005
2.3713e-005
0.000123145
0.000906713
0.0113
0.0571235
0.150033
0.242034
0.334899
0.317698
0.160488
0.0697535
0.0291851
0.00923809
0.0013529
0.000170523
0.0001207
5.91825e-005
3.74887e-005
5.34089e-005
4.77584e-005
4.43545e-005
3.96122e-005
5.44239e-005
6.07888e-005
5.74331e-005
2.50405e-005
9.46208e-005
5.7551e-005
0.000784827
0.0103674
0.0560785
0.163298
0.261597
0.286716
0.296613
0.185423
0.0723982
0.0249978
0.00654577
0.000197713
4.39983e-005
3.88727e-005
1.79251e-005
2.15118e-005
4.01675e-005
4.49425e-005
3.96122e-005
3.26271e-005
3.67945e-005
3.66442e-005
3.48278e-005
9.53907e-006
9.65165e-005
-7.76063e-005
0.000588229
0.00811476
0.048315
0.160751
0.293171
0.295675
0.208568
0.145742
0.0698809
0.0213387
0.00470677
0.000568107
8.71646e-005
0.000203882
0.000101206
1.47353e-005
4.13912e-005
3.54021e-005
3.26271e-005
2.07001e-005
6.26331e-005
6.01046e-005
6.34987e-005
1.51638e-005
1.48263e-005
-5.58276e-005
0.000431166
0.00534308
0.0352046
0.136771
0.308554
0.375478
0.226816
0.0999462
0.0545997
0.0167449
0.00308956
0.000156915
0.000323977
0.000302913
9.66727e-005
2.60309e-005
3.22389e-005
3.93676e-005
2.07001e-005
1.50742e-005
2.23778e-005
3.64692e-005
0.000137189
4.67515e-005
2.17743e-005
5.54585e-005
0.000249833
0.0025952
0.0197761
0.0923541
0.282557
0.569175
0.559154
0.211607
0.0413528
0.0116314
0.00191214
0.000140918
0.000322243
0.00012045
8.88801e-005
6.321e-005
0.000115602
2.55071e-006
1.50742e-005
0.00111334
0.000833607
0.000296964
0.000127448
0.000446085
0.000760209
0.000671339
0.000109927
0.000589584
0.007484
0.0428429
0.175692
0.54058
0.788485
0.342477
0.0278578
0.00620777
0.00105566
4.36965e-005
5.14705e-005
8.05257e-005
0.00040719
0.000793824
0.00113328
0.00118384
0.00111334
0.0105783
0.00867907
0.00622283
0.00445763
0.00401642
0.0050987
0.00522687
0.000740204
0.000154476
0.00258956
0.0177954
0.0960946
0.410805
0.81401
0.380036
0.00580842
0.00344909
0.00081393
6.3301e-005
0.00039624
0.00169822
0.00413591
0.00717321
0.00980228
0.0110423
0.0105783
0.0492495
0.0424629
0.0363031
0.0311104
0.0257488
0.0223928
0.027419
0.00405162
0.000247413
0.00114365
0.00785847
0.0521786
0.288528
0.692958
0.33029
0.0102243
0.0126574
0.00217156
0.00040705
0.00371434
0.0123447
0.0256797
0.0396421
0.0496136
0.0527307
0.0492495
0.123169
0.113712
0.108485
0.0885138
0.0518965
0.0375317
0.0612237
0.0104871
0.00511455
0.00116484
0.00198705
0.0081246
0.0747732
0.308693
0.217873
0.0477738
0.0352437
0.00530374
0.00631567
0.0242167
0.062122
0.105729
0.137669
0.148866
0.140235
0.123169
0.210739
0.228367
0.199646
0.132941
0.0786109
0.0636946
0.166934
0.127626
0.069084
0.0243912
0.00993191
0.0100644
0.0627723
0.366715
0.212794
0.122719
0.0551244
0.0200902
0.0475421
0.114721
0.209675
0.26146
0.269245
0.246074
0.215551
0.210739
0.310041
0.281062
0.210618
0.179309
0.171831
0.295712
0.659781
0.631099
0.434289
0.232111
0.0903631
0.187087
1.58039
3.94173
1.59189
0.23666
0.0855048
0.154531
0.250125
0.404853
0.478298
0.360364
0.286729
0.250281
0.263485
0.310041
0.249171
0.204244
0.194622
0.221545
0.287373
0.520195
1.13021
1.22396
0.953354
0.553321
0.234468
0.678215
5.7504
14.0507
5.67018
0.846998
0.363062
0.490349
0.647169
0.720949
0.567879
0.251173
0.189001
0.224551
0.272874
0.249171
0.127391
0.12527
0.142968
0.17866
0.243123
0.375161
0.586732
0.549199
0.434102
0.228247
0.0153812
0.494692
5.20537
13.4848
5.12897
0.774912
0.323352
0.389756
0.482761
0.460589
0.286023
0.0981255
0.103268
0.157121
0.146694
0.127391
0.0537697
0.0609548
0.073998
0.0926487
0.115269
0.142652
0.166712
0.143087
0.0918521
0.0356636
0.00231201
0.0118961
0.563934
1.6214
0.321675
0.0739293
0.0144279
0.000916434
0.0171318
0.0306309
0.0314019
0.0355967
0.054156
0.0578923
0.0531718
0.0537697
0.018038
0.022154
0.0285868
0.0360618
0.0395527
0.03852
0.0342845
0.0242593
0.0122022
0.00329698
0.00246744
0.0065484
0.16929
0.383986
0.108609
0.0492939
0.0162902
0.00313325
0.000390186
0.00234686
0.00664669
0.0103408
0.0134292
0.0140171
0.0153354
0.018038
0.00414461
0.00546248
0.00844057
0.0131806
0.0134174
0.0103526
0.00713655
0.00416629
0.00277737
0.00375233
0.00207458
0.0318285
0.296252
0.519981
0.168921
0.0274827
0.00257026
0.000611838
0.000125371
0.000418327
0.00107667
0.00151223
0.00200418
0.00257211
0.00330168
0.00414461
3.85991e-005
0.000292194
0.000858966
0.00476846
0.00447456
0.00291362
0.00186504
0.00152471
0.00376314
0.00891602
0.00456134
0.091001
0.528097
0.840186
0.320367
0.0600516
0.00746836
0.000774711
4.20209e-005
9.54737e-005
0.000135729
7.93441e-005
3.513e-005
0.000266806
5.22288e-005
3.85991e-005
8.72858e-005
0.000433177
0.00130983
0.00111309
0.00059629
0.000488273
0.00021161
0.000535027
0.00472282
0.0250738
0.0238514
0.163056
0.729017
1.00835
0.394846
0.0897402
0.014004
0.00188556
0.000230191
0.000101936
0.000219472
0.000194027
7.90387e-005
4.34073e-006
3.08481e-005
8.72858e-005
0.000214121
0.000246087
3.66553e-005
0.000183125
0.000217094
0.000159456
0.00011293
0.00110039
0.0116872
0.0492451
0.0830963
0.19705
0.758737
0.983467
0.423147
0.107896
0.0203543
0.00350627
0.00059508
0.000115897
0.000190267
0.000269311
0.000126031
2.93754e-005
0.000120338
0.000214121
6.96572e-005
9.39347e-005
6.47629e-005
1.37263e-005
3.39201e-005
4.69146e-005
9.54594e-005
0.000858727
0.00680363
0.0215671
0.06428
0.0669328
0.339455
0.493654
0.297636
0.100877
0.0248526
0.00565746
0.00126194
0.000210261
3.88799e-005
0.000167476
0.000237441
1.3613e-005
4.21168e-005
6.96572e-005
2.40896e-005
3.68362e-005
3.46961e-005
3.93577e-005
1.83342e-005
1.30233e-005
5.92597e-005
0.000190604
0.00245223
0.0213853
0.0462872
0.084482
0.191889
0.285373
0.212677
0.0917785
0.0290692
0.00840213
0.00221414
0.000427774
8.71994e-005
2.96935e-005
9.29543e-005
3.01324e-005
1.92166e-005
2.40896e-005
3.68955e-005
5.2979e-005
5.21564e-005
4.46075e-005
2.3505e-005
2.66604e-005
8.74528e-005
0.000146959
0.00366006
0.0312829
0.0806827
0.124589
0.185758
0.223768
0.171432
0.086004
0.0330745
0.0112669
0.00318877
0.000575195
8.17913e-005
7.70103e-006
2.29278e-005
4.30143e-005
3.59545e-005
3.68955e-005
3.06679e-005
4.54381e-005
4.51745e-005
3.90147e-005
2.28346e-005
3.76665e-005
0.000100238
2.20262e-005
0.00534965
0.039376
0.121386
0.196091
0.20331
0.198128
0.149039
0.0814228
0.0355613
0.0132794
0.00381396
0.000636307
9.1899e-005
5.93032e-006
3.22676e-005
3.54891e-005
2.9935e-005
3.06679e-005
2.93149e-005
4.45383e-005
4.95056e-005
4.34994e-005
2.69861e-005
4.21185e-005
8.20492e-005
0.000446135
0.00763412
0.0448818
0.130319
0.261206
0.272693
0.202752
0.136772
0.0766388
0.035604
0.0136682
0.0037953
0.00053336
5.40428e-005
1.68667e-005
1.97184e-005
3.30298e-005
2.75306e-005
2.93149e-005

VECTORS u double
5.43428 5.5459 0.0
6.05874 1.78537 0.0
7.28629 2.15365 0.0
8.03812 2.83622 0.0
9.74487 3.02072 0.0
16.7934 7.60044 0.0
30.9999 -58.9535 0.0
50.7492 -39.5402 0.0
60.9936 -69.3239 0.0
58.4578 -76.0327 0.0
44.1931 -51.6432 0.0
14.2717 -10.7624 0.0
-27.8538 37.2258 0.0
-57.4542 61.9912 0.0
-72.7069 76.3057 0.0
-78.4895 90.5568 0.0
-79.2566 88.4059 0.0
-77.2683 79.2642 0.0
-73.9365 66.9235 0.0
-67.4328 50.0757 0.0
-23.2097 12.1744 0.0
-12.1953 26.8017 0.0
-7.41637 5.31629 0.0
-6.18534 8.24142 0.0
-6.15611 8.97396 0.0
5.43428 5.5459 0.0
8.64824 5.99562 0.0
9.51343 2.45676 0.0
9.44777 1.45741 0.0
9.39941 1.66928 0.0
8.25253 2.64766 0.0
31.1923 -11.99 0.0
37.9074 -19.3257 0.0
52.8652 -31.9202 0.0
65.1381 -71.1392 0.0
63.2994 -77.4436 0.0
54.5308 -61.1121 0.0
37.935 -35.5904 0.0
-0.467201 12.049 0.0
-44.0672 55.1662 0.0
-68.3706 80.5407 0.0
-73.8479 95.4917 0.0
-73.4897 90.6187 0.0
-71.7948 79.2069 0.0
-68.9208 62.5718 0.0
-61.0006 46.7731 0.0
39.9332 -41.4428 0.0
-4.34153 3.48241 0.0
-7.36748 8.57275 0.0
-4.45646 9.40464 0.0
-5.07975 9.93871 0.0
8.64824 5.99562 0.0
8.2497 7.18995 0.0
9.60525 5.22712 0.0
10.0888 4.21438 0.0
10.0754 4.22607 0.0
5.46262 15.8388 0.0
-12.6113 49.1942 0.0
43.8164 -28.4019 0.0
51.2707 -22.6775 0.0
68.7032 -71.2613 0.0
66.3029 -75.5339 0.0
57.4981 -60.5299 0.0
50.4639 -46.952 0.0
28.3937 -17.9675 0.0
-20.0856 32.7371 0.0
-56.4571 73.5757 0.0
-67.8749 97.7471 0.0
-67.4438 92.4234 0.0
-66.3339 79.3603 0.0
-63.217 48.5199 0.0
-30.7735 30.4427 0.0
-17.716 -2.21387 0.0
-16.3782 7.334 0.0
-8.48966 7.05549 0.0
-3.25826 9.88014 0.0
-4.28446 9.7217 0.0
8.2497 7.18995 0.0
7.61477 7.86682 0.0
9.11822 6.60068 0.0
9.9839 5.75561 0.0
9.74642 6.1213 0.0
-1.08787 19.6957 0.0
27.408 1.08307 0.0
32.4809 -2.26353 0.0
63.545 -46.454 0.0
72.2093 -70.4815 0.0
68.3756 -71.8008 0.0
58.3947 -56.747 0.0
52.4899 -45.023 0.0
45.1219 -32.613 0.0
11.7986 0.0104901 0.0
-36.2485 53.3807 0.0
-58.75 92.9204 0.0
-61.4807 93.4062 0.0
-60.7759 80.3037 0.0
-62.6132 -10.0686 0.0
-24.6457 -9.69482 0.0
-30.4601 -29.1442 0.0
-31.0902 -17.5041 0.0
-15.8547 -0.794558 0.0
0.526602 12.5985 0.0
-3.98067 9.61617 0.0
7.61477 7.86682 0.0
2.16522 4.80502 0.0
8.43636 8.91954 0.0
9.67006 7.36421 0.0
5.53647 10.8753 0.0
-32.9417 52.2913 0.0
46.7931 -27.3771 0.0
71.7337 -71.0108 0.0
72.9198 -52.5223 0.0
74.6048 -67.1682 0.0
69.5401 -66.5424 0.0
58.7023 -51.8596 0.0
51.8271 -39.2516 0.0
47.3659 -28.9245 0.0
32.3817 -16.7461 0.0
-14.4532 29.6711 0.0
-46.6582 80.994 0.0
-55.258 91.8469 0.0
-54.8119 80.8182 0.0
-43.0183 70.4402 0.0
35.9917 40.9863 0.0
8.45277 36.6718 0.0
-8.73533 28.1778 0.0
-27.7615 7.04055 0.0
1.6248 16.386 0.0
-6.71932 9.58285 0.0
2.16522 4.80502 0.0
-25.3803 -17.9978 0.0
-2.97348 5.18583 0.0
8.41922 14.9576 0.0
2.70189 23.5035 0.0
-29.1642 54.4624 0.0
59.2451 -23.9117 0.0
61.0858 -55.8337 0.0
74.8696 -50.4686 0.0
75.2941 -61.4731 0.0
70.0443 -60.3447 0.0
58.9346 -46.5507 0.0
50.8235 -32.4686 0.0
44.1477 -17.9678 0.0
30.3118 -4.46914 0.0
-1.46163 20.6279 0.0
-35.6251 68.7697 0.0
-48.849 87.1148 0.0
-49.48 80.0746 0.0
22.2887 34.2822 0.0
11.1776 38.6342 0.0
-12.9133 18.4267 0.0
-45.1407 0.412446 0.0
17.1376 32.1389 0.0
-46.5188 -19.8187 0.0
11.8996 23.0229 0.0
-25.3803 -17.9978 0.0
-108.395 -89.8234 0.0
-60.3705 -58.2875 0.0
5.1956 -31.4394 0.0
3.3055 16.9677 0.0
-17.7012 50.0168 0.0
9.42634 19.7219 0.0
59.3953 -37.1486 0.0
72.6737 -47.4354 0.0
73.9162 -53.3433 0.0
70.422 -53.8498 0.0
59.7666 -41.4754 0.0
50.1026 -25.3794 0.0
39.7335 -5.11722 0.0
20.8029 11.9006 0.0
-2.74158 24.6998 0.0
-22.5372 50.7677 0.0
-41.145 78.0388 0.0
-42.9109 77.6194 0.0
35.2335 21.3827 0.0
-9.39911 24.8926 0.0
-55.8524 -8.8572 0.0
16.9494 47.9255 0.0
42.8399 62.1051 0.0
37.2393 56.9138 0.0
-1108.93 -653.802 0.0
-108.395 -89.8234 0.0
60.0274 66.8105 0.0
56.9393 62.7833 0.0
20.5293 53.7536 0.0
-43.3666 42.5642 0.0
9.49245 47.026 0.0
-16.3089 42.9795 0.0
-23.4294 35.7137 0.0
-44.3374 59.1182 0.0
61.4024 -29.2472 0.0
70.3543 -46.2534 0.0
61.6639 -36.8477 0.0
50.6959 -19.4649 0.0
37.0962 1.387 0.0
15.6068 17.9868 0.0
-6.4499 27.1088 0.0
-15.4608 33.1538 0.0
-34.1509 63.9295 0.0
-34.8592 74.6635 0.0
27.4008 -30.0544 0.0
-79.9908 -43.5841 0.0
8.53508 52.6113 0.0
54.1373 76.594 0.0
60.1407 77.2778 0.0
59.8861 73.9895 0.0
59.9774 70.8647 0.0
60.0274 66.8105 0.0
76.8025 67.6594 0.0
76.1543 63.1354 0.0
74.1963 57.933 0.0
66.014 50.0611 0.0
35.1955 38.6872 0.0
-2.79972 30.036 0.0
-12.7927 20.5544 0.0
-22.81 26.5246 0.0
-24.999 59.8779 0.0
61.9154 -32.8454 0.0
56.7451 -27.3472 0.0
45.7406 -8.71416 0.0
31.8763 9.66979 0.0
10.8023 22.9153 0.0
-9.68761 29.218 0.0
-15.9169 31.7985 0.0
-23.6033 67.5021 0.0
-25.9881 72.4787 0.0
-47.7236 60.9651 0.0
49.149 83.3645 0.0
62.7973 83.0569 0.0
69.1414 81.21 0.0
72.8213 78.6755 0.0
75.0643 75.5252 0.0
76.2156 71.8495 0.0
76.8025 67.6594 0.0
80.9367 62.7634 0.0
81.267 58.0456 0.0
77.3626 50.8023 0.0
66.939 40.087 0.0
47.5159 28.4202 0.0
12.4331 17.2663 0.0
-5.84335 7.65959 0.0
-19.7173 4.32674 0.0
22.2272 -40.1463 0.0
47.6171 -23.4255 0.0
43.2775 -24.5413 0.0
36.4849 -8.07393 0.0
25.7834 12.3414 0.0
6.58017 25.3498 0.0
-12.5683 30.66 0.0
8.6991 91.7554 0.0
-8.36926 70.9478 0.0
-18.2326 69.7342 0.0
-18.1279 76.5641 0.0
50.7412 79.5842 0.0
60.2292 76.501 0.0
66.4011 74.2544 0.0
71.5434 72.1377 0.0
75.6907 69.6253 0.0
78.6434 66.5186 0.0
80.9367 62.7634 0.0
65.1068 53.9409 0.0
60.9016 46.5248 0.0
45.8849 31.4346 0.0
27.4062 14.6059 0.0
10.1209 1.88723 0.0
-11.7294 -0.638231 0.0
-20.5814 -4.19581 0.0
-46.6124 -16.8631 0.0
20.2294 44.6693 0.0
-17.6446 24.5547 0.0
9.72252 -26.3462 0.0
21.3112 -26.0586 0.0
22.1655 7.10187 0.0
4.00023 24.4835 0.0
-15.5736 32.1143 0.0
2.03109 69.5781 0.0
-10.6777 58.9887 0.0
-18.1206 56.9723 0.0
18.0019 66.0631 0.0
41.0878 68.2022 0.0
47.5507 65.0331 0.0
52.2022 62.7808 0.0
56.3816 60.9587 0.0
60.0688 59.1184 0.0
63.0111 56.988 0.0
65.1068 53.9409 0.0
45.6893 41.6649 0.0
25.3935 21.055 0.0
-3.34039 -5.73696 0.0
-19.9456 -23.4075 0.0
-17.3809 -25.0393 0.0
14.4926 12.4314 0.0
10.2349 18.6939 0.0
10.1043 24.5021 0.0
11.2517 27.5453 0.0
5.67233 26.4286 0.0
-14.4234 25.1827 0.0
-8.64109 27.2633 0.0
10.4711 25.669 0.0
-0.365861 30.0455 0.0
-14.6365 32.1954 0.0
-6.54961 47.9926 0.0
-12.6079 45.9081 0.0
-8.80783 42.8496 0.0
10.0084 53.0657 0.0
25.5626 56.4081 0.0
31.8862 54.746 0.0
37.8003 53.741 0.0
43.0207 52.9084 0.0
47.5593 51.9982 0.0
50.4859 50.1946 0.0
45.6893 41.6649 0.0
5.76687 10.0903 0.0
-24.5683 -20.5903 0.0
-38.0215 -37.6865 0.0
-32.9637 -38.9623 0.0
-19.2118 -31.2888 0.0
10.7608 -1.36754 0.0
13.8598 9.91503 0.0
15.6937 17.0443 0.0
16.967 20.0504 0.0
18.2421 21.1667 0.0
19.248 21.6072 0.0
21.7008 25.1043 0.0
16.1308 26.8315 0.0
-0.948185 27.8427 0.0
-17.2657 27.0533 0.0
-18.9238 29.1145 0.0
-18.2464 28.8023 0.0
-12.3236 33.1664 0.0
-4.20884 39.6317 0.0
5.7452 44.0164 0.0
11.423 45.133 0.0
22.1471 47.201 0.0
31.4154 48.3631 0.0
36.9838 47.2876 0.0
29.7046 35.6107 0.0
5.76687 10.0903 0.0
-41.0619 -35.468 0.0
-53.3202 -52.0714 0.0
-49.198 -55.0417 0.0
-37.7745 -50.7093 0.0
-23.0257 -42.0501 0.0
-4.74589 -27.2921 0.0
6.26853 -11.4066 0.0
13.005 -0.697294 0.0
15.5077 3.06377 0.0
17.4875 5.21558 0.0
20.4391 7.77564 0.0
22.7506 12.7359 0.0
16.4087 14.1759 0.0
-0.9703 15.3015 0.0
-17.8077 14.1061 0.0
-24.7662 12.0024 0.0
-27.2776 11.9773 0.0
-22.4163 17.1073 0.0
-17.6126 21.5637 0.0
-11.832 26.1796 0.0
-6.17179 30.2042 0.0
8.52485 36.4987 0.0
22.5972 40.0118 0.0
14.4164 24.4896 0.0
-15.5863 -7.83408 0.0
-41.0619 -35.468 0.0
-68.688 -65.1022 0.0
-67.098 -70.2993 0.0
-58.8949 -69.8877 0.0
-48.2021 -66.4581 0.0
-35.3671 -59.7028 0.0
-20.7931 -49.0481 0.0
-8.27447 -35.9804 0.0
0.614282 -24.4941 0.0
4.45937 -21.5313 0.0
8.08856 -17.4777 0.0
-9.62762 -8.37208 0.0
21.9276 -7.63621 0.0
16.0017 -6.57592 0.0
-0.992197 -4.82536 0.0
-17.6196 -6.65415 0.0
-25.9585 -9.41125 0.0
-32.0904 -10.0591 0.0
-29.5867 -6.23599 0.0
-26.8472 -3.00505 0.0
-24.4133 0.548531 0.0
-20.9313 5.58306 0.0
-8.65378 14.3408 0.0
-0.793719 7.88504 0.0
-32.8843 -24.6823 0.0
-57.2976 -49.6653 0.0
-68.688 -65.1022 0.0
-84.5212 -74.6673 0.0
-79.2894 -77.8757 0.0
-72.3882 -79.3556 0.0