# vtk DataFile Version 2.0
Particulate Flow Equations Solution
ASCII
DATASET STRUCTURED_GRID
DIMENSIONS 26 26 1
POINTS 676 double
-10 -10 0
-9.23077 -10 0
-8.46154 -10 0
-7.69231 -10 0
-6.92308 -10 0
-6.15385 -10 0
-5.38462 -10 0
-4.61538 -10 0
-3.84615 -10 0
-3.07692 -10 0
-2.30769 -10 0
-1.53846 -10 0
-0.769231 -10 0
5.55112e-016 -10 0
0.769231 -10 0
1.53846 -10 0
2.30769 -10 0
3.07692 -10 0
3.84615 -10 0
4.61538 -10 0
5.38462 -10 0
6.15385 -10 0
6.92308 -10 0
7.69231 -10 0
8.46154 -10 0
10 -10 0
-10 -9.23077 0
-9.23077 -9.23077 0
-8.46154 -9.23077 0
-7.69231 -9.23077 0
-6.92308 -9.23077 0
-6.15385 -9.23077 0
-5.38462 -9.23077 0
-4.61538 -9.23077 0
-3.84615 -9.23077 0
-3.07692 -9.23077 0
-2.30769 -9.23077 0
-1.53846 -9.23077 0
-0.769231 -9.23077 0
5.55112e-016 -9.23077 0
0.769231 -9.23077 0
1.53846 -9.23077 0
2.30769 -9.23077 0
3.07692 -9.23077 0
3.84615 -9.23077 0
4.61538 -9.23077 0
5.38462 -9.23077 0
6.15385 -9.23077 0
6.92308 -9.23077 0
7.69231 -9.23077 0
8.46154 -9.23077 0
10 -9.23077 0
-10 -8.46154 0
-9.23077 -8.46154 0
-8.46154 -8.46154 0
-7.69231 -8.46154 0
-6.92308 -8.46154 0
-6.15385 -8.46154 0
-5.38462 -8.46154 0
-4.61538 -8.46154 0
-3.84615 -8.46154 0
-3.07692 -8.46154 0
-2.30769 -8.46154 0
-1.53846 -8.46154 0
-0.769231 -8.46154 0
5.55112e-016 -8.46154 0
0.769231 -8.46154 0
1.53846 -8.46154 0
2.30769 -8.46154 0
3.07692 -8.46154 0
3.84615 -8.46154 0
4.61538 -8.46154 0
5.38462 -8.46154 0
6.15385 -8.46154 0
6.92308 -8.46154 0
7.69231 -8.46154 0
8.46154 -8.46154 0
10 -8.46154 0
-10 -7.69231 0
-9.23077 -7.69231 0
-8.46154 -7.69231 0
-7.69231 -7.69231 0
-6.92308 -7.69231 0
-6.15385 -7.69231 0
-5.38462 -7.69231 0
-4.61538 -7.69231 0
-3.84615 -7.69231 0
-3.07692 -7.69231 0
-2.30769 -7.69231 0
-1.53846 -7.69231 0
-0.769231 -7.69231 0
5.55112e-016 -7.69231 0
0.769231 -7.69231 0
1.53846 -7.69231 0
2.30769 -7.69231 0
3.07692 -7.69231 0
3.84615 -7.69231 0
4.61538 -7.69231 0
5.38462 -7.69231 0
6.15385 -7.69231 0
6.92308 -7.69231 0
7.69231 -7.69231 0
8.46154 -7.69231 0
10 -7.69231 0
-10 -6.92308 0
-9.23077 -6.92308 0
-8.46154 -6.92308 0
-7.69231 -6.92308 0
-6.92308 -6.92308 0
-6.15385 -6.92308 0
-5.38462 -6.92308 0
-4.61538 -6.92308 0
-3.84615 -6.92308 0
-3.07692 -6.92308 0
-2.30769 -6.92308 0
-1.53846 -6.92308 0
-0.769231 -6.92308 0
5.55112e-016 -6.92308 0
0.769231 -6.92308 0
1.53846 -6.92308 0
2.30769 -6.92308 0
3.07692 -6.92308 0
3.84615 -6.92308 0
4.61538 -6.92308 0
5.38462 -6.92308 0
6.15385 -6.92308 0
6.92308 -6.92308 0
7.69231 -6.92308 0
8.46154 -6.92308 0
10 -6.92308 0
-10 -6.15385 0
-9.23077 -6.15385 0
-8.46154 -6.15385 0
-7.69231 -6.15385 0
-6.92308 -6.15385 0
-6.15385 -6.15385 0
-5.38462 -6.15385 0
-4.61538 -6.15385 0
-3.84615 -6.15385 0
-3.07692 -6.15385 0
-2.30769 -6.15385 0
-1.53846 -6.15385 0
-0.769231 -6.15385 0
5.55112e-016 -6.15385 0
0.769231 -6.15385 0
1.53846 -6.15385 0
2.30769 -6.15385 0
3.07692 -6.15385 0
3.84615 -6.15385 0
4.61538 -6.15385 0
5.38462 -6.15385 0
6.15385 -6.15385 0
6.92308 -6.15385 0
7.69231 -6.15385 0
8.46154 -6.15385 0
10 -6.15385 0
-10 -5.38462 0
-9.23077 -5.38462 0
-8.46154 -5.38462 0
-7.69231 -5.38462 0
-6.92308 -5.38462 0
-6.15385 -5.38462 0
-5.38462 -5.38462 0
-4.61538 -5.38462 0
-3.84615 -5.38462 0
-3.07692 -5.38462 0
-2.30769 -5.38462 0
-1.53846 -5.38462 0
-0.769231 -5.38462 0
5.55112e-016 -5.38462 0
0.769231 -5.38462 0
1.53846 -5.38462 0
2.30769 -5.38462 0
3.07692 -5.38462 0
3.84615 -5.38462 0
4.61538 -5.38462 0
5.38462 -5.38462 0
6.15385 -5.38462 0
6.92308 -5.38462 0
7.69231 -5.38462 0
8.46154 -5.38462 0
10 -5.38462 0
-10 -4.61538 0
-9.23077 -4.61538 0
-8.46154 -4.61538 0
-7.69231 -4.61538 0
-6.92308 -4.61538 0
-6.15385 -4.61538 0
-5.38462 -4.61538 0
-4.61538 -4.61538 0
-3.84615 -4.61538 0
-3.07692 -4.61538 0
-2.30769 -4.61538 0
-1.53846 -4.61538 0
-0.769231 -4.61538 0
5.55112e-016 -4.61538 0
0.769231 -4.61538 0
1.53846 -4.61538 0
2.30769 -4.61538 0
3.07692 -4.61538 0
3.84615 -4.61538 0
4.61538 -4.61538 0
5.38462 -4.61538 0
6.15385 -4.61538 0
6.92308 -4.61538 0
7.69231 -4.61538 0
8.46154 -4.61538 0
10 -4.61538 0
-10 -3.84615 0
-9.23077 -3.84615 0
-8.46154 -3.84615 0
-7.69231 -3.84615 0
-6.92308 -3.84615 0
-6.15385 -3.84615 0
-5.38462 -3.84615 0
-4.61538 -3.84615 0
-3.84615 -3.84615 0
-3.07692 -3.84615 0
-2.30769 -3.84615 0
-1.53846 -3.84615 0
-0.769231 -3.84615 0
5.55112e-016 -3.84615 0
0.769231 -3.84615 0
1.53846 -3.84615 0
2.30769 -3.84615 0
3.07692 -3.84615 0
3.84615 -3.84615 0
4.61538 -3.84615 0
5.38462 -3.84615 0
6.15385 -3.84615 0
6.92308 -3.84615 0
7.69231 -3.84615 0
8.46154 -3.84615 0
10 -3.84615 0
-10 -3.07692 0
-9.23077 -3.07692 0
-8.46154 -3.07692 0
-7.69231 -3.07692 0
-6.92308 -3.07692 0
-6.15385 -3.07692 0
-5.38462 -3.07692 0
-4.61538 -3.07692 0
-3.84615 -3.07692 0
-3.07692 -3.07692 0
-2.30769 -3.07692 0
-1.53846 -3.07692 0
-0.769231 -3.07692 0
5.55112e-016 -3.07692 0
0.769231 -3.07692 0
1.53846 -3.07692 0
2.30769 -3.07692 0
3.07692 -3.07692 0
3.84615 -3.07692 0
4.61538 -3.07692 0
5.38462 -3.07692 0
6.15385 -3.07692 0
6.92308 -3.07692 0
7.69231 -3.07692 0
8.46154 -3.07692 0
10 -3.07692 0
-10 -2.30769 0
-9.23077 -2.30769 0
-8.46154 -2.30769 0
-7.69231 -2.30769 0
-6.92308 -2.30769 0
-6.15385 -2.30769 0
-5.38462 -2.30769 0
-4.61538 -2.30769 0
-3.84615 -2.30769 0
-3.07692 -2.30769 0
-2.30769 -2.30769 0
-1.53846 -2.30769 0
-0.769231 -2.30769 0
5.55112e-016 -2.30769 0
0.769231 -2.30769 0
1.53846 -2.30769 0
2.30769 -2.30769 0
3.07692 -2.30769 0
3.84615 -2.30769 0
4.61538 -2.30769 0
5.38462 -2.30769 0
6.15385 -2.30769 0
6.92308 -2.30769 0
7.69231 -2.30769 0
8.46154 -2.30769 0
10 -2.30769 0
-10 -1.53846 0
-9.23077 -1.53846 0
-8.46154 -1.53846 0
-7.69231 -1.53846 0
-6.92308 -1.53846 0
-6.15385 -1.53846 0
-5.38462 -1.53846 0
-4.61538 -1.53846 0
-3.84615 -1.53846 0
-3.07692 -1.53846 0
-2.30769 -1.53846 0
-1.53846 -1.53846 0
-0.769231 -1.53846 0
5.55112e-016 -1.53846 0
0.769231 -1.53846 0
1.53846 -1.53846 0
2.30769 -1.53846 0
3.07692 -1.53846 0
3.84615 -1.53846 0
4.61538 -1.53846 0
5.38462 -1.53846 0
6.15385 -1.53846 0
6.92308 -1.53846 0
7.69231 -1.53846 0
8.46154 -1.53846 0
10 -1.53846 0
-10 -0.769231 0
-9.23077 -0.769231 0
-8.46154 -0.769231 0
-7.69231 -0.769231 0
-6.92308 -0.769231 0
-6.15385 -0.769231 0
-5.38462 -0.769231 0
-4.61538 -0.769231 0
-3.84615 -0.769231 0
-3.07692 -0.769231 0
-2.30769 -0.769231 0
-1.53846 -0.769231 0
-0.769231 -0.769231 0
5.55112e-016 -0.769231 0
0.769231 -0.769231 0
1.53846 -0.769231 0
2.30769 -0.769231 0
3.07692 -0.769231 0
3.84615 -0.769231 0
4.61538 -0.769231 0
5.38462 -0.769231 0
6.15385 -0.769231 0
6.92308 -0.769231 0
7.69231 -0.769231 0
8.46154 -0.769231 0
10 -0.769231 0
-10 5.55112e-016 0
-9.23077 5.55112e-016 0
-8.46154 5.55112e-016 0
-7.69231 5.55112e-016 0
-6.92308 5.55112e-016 0
-6.15385 5.55112e-016 0
-5.38462 5.55112e-016 0
-4.61538 5.55112e-016 0
-3.84615 5.55112e-016 0
-3.07692 5.55112e-016 0
-2.30769 5.55112e-016 0
-1.53846 5.55112e-016 0
-0.769231 5.55112e-016 0
5.55112e-016 5.55112e-016 0
0.769231 5.55112e-016 0
1.53846 5.55112e-016 0
2.30769 5.55112e-016 0
3.07692 5.55112e-016 0
3.84615 5.55112e-016 0
4.61538 5.55112e-016 0
5.38462 5.55112e-016 0
6.15385 5.55112e-016 0
6.92308 5.55112e-016 0
7.69231 5.55112e-016 0
8.46154 5.55112e-016 0
10 5.55112e-016 0
-10 0.769231 0
-9.23077 0.769231 0
-8.46154 0.769231 0
-7.69231 0.769231 0
-6.92308 0.769231 0
-6.15385 0.769231 0
-5.38462 0.769231 0
-4.61538 0.769231 0
-3.84615 0.769231 0
-3.07692 0.769231 0
-2.30769 0.769231 0
-1.53846 0.769231 0
-0.769231 0.769231 0
5.55112e-016 0.769231 0
0.769231 0.769231 0
1.53846 0.769231 0
2.30769 0.769231 0
3.07692 0.769231 0
3.84615 0.769231 0
4.61538 0.769231 0
5.38462 0.769231 0
6.15385 0.769231 0
6.92308 0.769231 0
7.69231 0.769231 0
8.46154 0.769231 0
10 0.769231 0
-10 1.53846 0
-9.23077 1.53846 0
-8.46154 1.53846 0
-7.69231 1.53846 0
-6.92308 1.53846 0
-6.15385 1.53846 0
-5.38462 1.53846 0
-4.61538 1.53846 0
-3.84615 1.53846 0
-3.07692 1.53846 0
-2.30769 1.53846 0
-1.53846 1.53846 0
-0.769231 1.53846 0
5.55112e-016 1.53846 0
0.769231 1.53846 0
1.53846 1.53846 0
2.30769 1.53846 0
3.07692 1.53846 0
3.84615 1.53846 0
4.61538 1.53846 0
5.38462 1.53846 0
6.15385 1.53846 0
6.92308 1.53846 0
7.69231 1.53846 0
8.46154 1.53846 0
10 1.53846 0
-10 2.30769 0
-9.23077 2.30769 0
-8.46154 2.30769 0
-7.69231 2.30769 0
-6.92308 2.30769 0
-6.15385 2.30769 0
-5.38462 2.30769 0
-4.61538 2.30769 0
-3.84615 2.30769 0
-3.07692 2.30769 0
-2.30769 2.30769 0
-1.53846 2.30769 0
-0.769231 2.30769 0
5.55112e-016 2.30769 0
0.769231 2.30769 0
1.53846 2.30769 0
2.30769 2.30769 0
3.07692 2.30769 0
3.84615 2.30769 0
4.61538 2.30769 0
5.38462 2.30769 0
6.15385 2.30769 0
6.92308 2.30769 0
7.69231 2.30769 0
8.46154 2.30769 0
10 2.30769 0
-10 3.07692 0
-9.23077 3.07692 0
-8.46154 3.07692 0
-7.69231 3.07692 0
-6.92308 3.07692 0
-6.15385 3.07692 0
-5.38462 3.07692 0
-4.61538 3.07692 0
-3.84615 3.07692 0
-3.07692 3.07692 0
-2.30769 3.07692 0
-1.53846 3.07692 0
-0.769231 3.07692 0
5.55112e-016 3.07692 0
0.769231 3.07692 0
1.53846 3.07692 0
2.30769 3.07692 0
3.07692 3.07692 0
3.84615 3.07692 0
4.61538 3.07692 0
5.38462 3.07692 0
6.15385 3.07692 0
6.92308 3.07692 0
7.69231 3.07692 0
8.46154 3.07692 0
10 3.07692 0
-10 3.84615 0
-9.23077 3.84615 0
-8.46154 3.84615 0
-7.69231 3.84615 0
-6.92308 3.84615 0
-6.15385 3.84615 0
-5.38462 3.84615 0
-4.61538 3.84615 0
-3.84615 3.84615 0
-3.07692 3.84615 0
-2.30769 3.84615 0
-1.53846 3.84615 0
-0.769231 3.84615 0
5.55112e-016 3.84615 0
0.769231 3.84615 0
1.53846 3.84615 0
2.30769 3.84615 0
3.07692 3.84615 0
3.84615 3.84615 0
4.61538 3.84615 0
5.38462 3.84615 0
6.15385 3.84615 0
6.92308 3.84615 0
7.69231 3.84615 0
8.46154 3.84615 0
10 3.84615 0
-10 4.61538 0
-9.23077 4.61538 0
-8.46154 4.61538 0
-7.69231 4.61538 0
-6.92308 4.61538 0
-6.15385 4.61538 0
-5.38462 4.61538 0
-4.61538 4.61538 0
-3.84615 4.61538 0
-3.07692 4.61538 0
-2.30769 4.61538 0
-1.53846 4.61538 0
-0.769231 4.61538 0
5.55112e-016 4.61538 0
0.769231 4.61538 0
1.53846 4.61538 0
2.30769 4.61538 0
3.07692 4.61538 0
3.84615 4.61538 0
4.61538 4.61538 0
5.38462 4.61538 0
6.15385 4.61538 0
6.92308 4.61538 0
7.69231 4.61538 0
8.46154 4.61538 0
10 4.61538 0
-10 5.38462 0
-9.23077 5.38462 0
-8.46154 5.38462 0
-7.69231 5.38462 0
-6.92308 5.38462 0
-6.15385 5.38462 0
-5.38462 5.38462 0
-4.61538 5.38462 0
-3.84615 5.38462 0
-3.07692 5.38462 0
-2.30769 5.38462 0
-1.53846 5.38462 0
-0.769231 5.38462 0
5.55112e-016 5.38462 0
0.769231 5.38462 0
1.53846 5.38462 0
2.30769 5.38462 0
3.07692 5.38462 0
3.84615 5.38462 0
4.61538 5.38462 0
5.38462 5.38462 0
6.15385 5.38462 0
6.92308 5.38462 0
7.69231 5.38462 0
8.46154 5.38462 0
10 5.38462 0
-10 6.15385 0
-9.23077 6.15385 0
-8.46154 6.15385 0
-7.69231 6.15385 0
-6.92308 6.15385 0
-6.15385 6.15385 0
-5.38462 6.15385 0
-4.61538 6.15385 0
-3.84615 6.15385 0
-3.07692 6.15385 0
-2.30769 6.15385 0
-1.53846 6.15385 0
-0.769231 6.15385 0
5.55112e-016 6.15385 0
0.769231 6.15385 0
1.53846 6.15385 0
2.30769 6.15385 0
3.07692 6.15385 0
3.84615 6.15385 0
4.61538 6.15385 0
5.38462 6.15385 0
6.15385 6.15385 0
6.92308 6.15385 0
7.69231 6.15385 0
8.46154 6.15385 0
10 6.15385 0
-10 6.92308 0
-9.23077 6.92308 0
-8.46154 6.92308 0
-7.69231 6.92308 0
-6.92308 6.92308 0
-6.15385 6.92308 0
-5.38462 6.92308 0
-4.61538 6.92308 0
-3.84615 6.92308 0
-3.07692 6.92308 0
-2.30769 6.92308 0
-1.53846 6.92308 0
-0.769231 6.92308 0
5.55112e-016 6.92308 0
0.769231 6.92308 0
1.53846 6.92308 0
2.30769 6.92308 0
3.07692 6.92308 0
3.84615 6.92308 0
4.61538 6.92308 0
5.38462 6.92308 0
6.15385 6.92308 0
6.92308 6.92308 0
7.69231 6.92308 0
8.46154 6.92308 0
10 6.92308 0
-10 7.69231 0
-9.23077 7.69231 0
-8.46154 7.69231 0
-7.69231 7.69231 0
-6.92308 7.69231 0
-6.15385 7.69231 0
-5.38462 7.69231 0
-4.61538 7.69231 0
-3.84615 7.69231 0
-3.07692 7.69231 0
-2.30769 7.69231 0
-1.53846 7.69231 0
-0.769231 7.69231 0
5.55112e-016 7.69231 0
0.769231 7.69231 0
1.53846 7.69231 0
2.30769 7.69231 0
3.07692 7.69231 0
3.84615 7.69231 0
4.61538 7.69231 0
5.38462 7.69231 0
6.15385 7.69231 0
6.92308 7.69231 0
7.69231 7.69231 0
8.46154 7.69231 0
10 7.69231 0
-10 8.46154 0
-9.23077 8.46154 0
-8.46154 8.46154 0
-7.69231 8.46154 0
-6.92308 8.46154 0
-6.15385 8.46154 0
-5.38462 8.46154 0
-4.61538 8.46154 0
-3.84615 8.46154 0
-3.07692 8.46154 0
-2.30769 8.46154 0
-1.53846 8.46154 0
-0.769231 8.46154 0
5.55112e-016 8.46154 0
0.769231 8.46154 0
1.53846 8.46154 0
2.30769 8.46154 0
3.07692 8.46154 0
3.84615 8.46154 0
4.61538 8.46154 0
5.38462 8.46154 0
6.15385 8.46154 0
6.92308 8.46154 0
7.69231 8.46154 0
8.46154 8.46154 0
10 8.46154 0
-10 10 0
-9.23077 10 0
-8.46154 10 0
-7.69231 10 0
-6.92308 10 0
-6.15385 10 0
-5.38462 10 0
-4.61538 10 0
-3.84615 10 0
-3.07692 10 0
-2.30769 10 0
-1.53846 10 0
-0.769231 10 0
5.55112e-016 10 0
0.769231 10 0
1.53846 10 0
2.30769 10 0
3.07692 10 0
3.84615 10 0
4.61538 10 0
5.38462 10 0
6.15385 10 0
6.92308 10 0
7.69231 10 0
8.46154 10 0
10 10 0

POINT_DATA 676
SCALARS h double 1
LOOkUP_TABLE default
0.0234938
0.0242553
0.0118709
0.0053464
0.00369048
0.00493637
0.00939308
0.0148874
0.0128769
0.0069536
0.00313316
0.00153617
0.00130828
0.00107062
0.000882421
0.000746192
0.000646449
0.00057195
0.000515331
0.000465196
0.000492942
0.000940879
0.00271219
0.00724324
0.00993525
0.0234938
0.0279784
0.0265068
0.0120591
0.00448793
0.00218698
0.00266493
0.00585471
0.0106539
0.0103442
0.00598808
0.00274206
0.00128766
0.00112504
0.000894502
0.000721564
0.000593715
0.000496871
0.000421515
0.00036052
0.000304157
0.000311987
0.000660229
0.00219901
0.00663793
0.0110873
0.0279784
0.0327925
0.0283643
0.0124189
0.00416705
0.00157448
0.00170581
0.00366732
0.00654394
0.00681222
0.00426277
0.00205252
0.000967081
0.000808412
0.000634446
0.000500377
0.000401144
0.000323569
0.00025963
0.000207632
0.000161531
0.000160836
0.000392157
0.00165681
0.00678435
0.015114
0.0327925
0.0370473
0.0289388
0.0123635
0.00399061
0.001386
0.00133366
0.00240179
0.00372537
0.00390232
0.00260748
0.00133658
0.000652718
0.000497275
0.00038707
0.000291464
0.000232971
0.000173428
0.0001239
0.000113459
0.000104548
3.59679e-005
0.000355784
0.00196702
0.00797371
0.0209464
0.0370473
0.0382222
0.0273031
0.0114566
0.00367417
0.00127617
0.00109464
0.00159179
0.00206443
0.00205601
0.00142803
0.000774279
0.000394397
0.00027039
0.000214904
0.000139895
9.29758e-005
8.86412e-005
5.20647e-005
2.18907e-005
3.42732e-005
1.90971e-005
0.000328508
0.00228012
0.0100423
0.0269377
0.0382222
0.0351933
0.0234659
0.00975028
0.00318212
0.00115108
0.000886269
0.00104889
0.00114357
0.00104333
0.00072702
0.000406818
0.000209541
0.00011826
5.44974e-005
5.74769e-005
3.00417e-005
5.13842e-005
0.000102277
4.2133e-005
4.79984e-005
9.00312e-005
0.000693042
0.00446414
0.0149131
0.0295671
0.0351933
0.0293206
0.0184935
0.00772361
0.00265838
0.00104582
0.000730721
0.00070685
0.000653124
0.000532646
0.000356328
0.000193451
8.21422e-005
2.39464e-005
1.99338e-005
6.69733e-005
8.15789e-005
9.9174e-005
0.000178399
0.000199196
0.000271113
0.00108683
0.00348533
0.0093678
0.0191455
0.0287439
0.0293206
0.0227559
0.0137962
0.00598685
0.00231359
0.00104903
0.000688046
0.00054823
0.000428363
0.000309259
0.000201982
0.000134311
0.000135472
0.000235804
0.000475785
0.000840839
0.00124877
0.0016136
0.0019025
0.0021535
0.00267133
0.00430269
0.00797474
0.0140267
0.0211073
0.0254824
0.0227559
0.0175885
0.0105997
0.00509392
0.0023944
0.00130402
0.000846579
0.000585895
0.000397313
0.000265367
0.000202731
0.000258662
0.000549007
0.00125037
0.00257621
0.00461586
0.00706288
0.00925896
0.0105923
0.0109275
0.0108651
0.0116346
0.0141953
0.0181577
0.0215856
0.0218737
0.0175885
0.0157646
0.00994785
0.00562833
0.00326581
0.00203762
0.00132029
0.000840482
0.000512323
0.000311876
0.000255025
0.00049901
0.00157899
0.00428086
0.00943802
0.0176189
0.0277943
0.0370415
0.0421004
0.0415098
0.0367118
0.0310575
0.0272499
0.025531
0.0240922
0.0209738
0.0157646
0.0195786
0.0131167
0.00842959
0.00546304
0.00353914
0.00222496
0.00132029
0.000726329
0.000373563
0.000235807
0.000586074
0.00312544
0.010646
0.025886
0.0514571
0.0850373
0.117014
0.134952
0.131917
0.111582
0.0850126
0.0620903
0.0461818
0.0354876
0.027096
0.0195786
0.0323313
0.0218973
0.0145164
0.00949541
0.00599421
0.00357217
0.00196549
0.000971342
0.000413151
0.000166131
0.000493272
0.00478518
0.0198576
0.0541528
0.116984
0.206527
0.299288
0.358067
0.356966
0.301493
0.222541
0.15089
0.0997989
0.0673393
0.046628
0.0323313
0.0575226
0.0375934
0.0241644
0.0151808
0.00907278
0.00505152
0.00255616
0.00112741
0.000396672
0.000115036
0.000550204
0.00561744
0.0276721
0.0855327
0.204416
0.393025
0.611927
0.775615
0.807008
0.699743
0.519708
0.345327
0.217054
0.136093
0.0875887
0.0575226
0.0943024
0.0580796
0.0351911
0.0207626
0.0115566
0.00592397
0.00270649
0.00103206
0.000274279
0.000119962
0.000610275
0.00493589
0.0281057
0.0996003
0.267552
0.570241
0.971949
1.33068
1.47384
1.33903
1.02348
0.684649
0.421912
0.252701
0.15294
0.0943024
0.131949
0.0757475
0.0426291
0.0233017
0.0119234
0.0055467
0.00224647
0.000718269
0.000135438
0.0001986
0.000869481
0.00335295
0.0200981
0.0832048
0.255024
0.612099
1.16172
1.74884
2.09918
2.03337
1.6267
1.11446
0.685468
0.398455
0.228594
0.131949
0.153285
0.0816849
0.0422784
0.0211612
0.00980233
0.00403394
0.00137727
0.000325054
0.000122353
0.000339318
0.000912529
0.00159668
0.00963852
0.0486178
0.173075
0.474659
1.0185
1.71347
2.26677
2.38041
2.0253
1.4432
0.899646
0.514898
0.282876
0.153285
0.149162
0.0739986
0.0350311
0.0159038
0.00657203
0.00234172
0.000677871
0.000172918
0.000314263
0.000845489
0.00085504
0.000809174
0.00290987
0.0191614
0.0821385
0.26217
0.645937
1.2332
1.82711
2.11527
1.94723
1.46879
0.945006
0.542494
0.29014
0.149162
0.126177
0.0590416
0.0256008
0.0104795
0.00381013
0.00108823
0.00010925
0.00027329
0.000742084
0.000910911
0.000854497
0.000653889
0.000714159
0.00459138
0.0261943
0.101241
0.293688
0.648872
1.09566
1.42307
1.44409
1.1771
0.800167
0.472961
0.252952
0.126177
0.0974217
0.0444251
0.0179543
0.00666721
0.00221797
0.000737621
0.000590603
0.000901627
0.00112656
0.00112823
0.000937681
0.000648212
0.000389362
0.000625435
0.0049036
0.0254725
0.092229
0.245586
0.486818
0.726078
0.829485
0.747096
0.551103
0.346863
0.193132
0.0974217
0.0711968
0.0341271
0.0137512
0.00490679
0.00176209
0.00114866
0.00141815
0.0016208
0.00162639
0.00141305
0.00104969
0.000662174
0.000352225
0.000177081
0.000442229
0.00346335
0.0175773
0.0614261
0.152762
0.275329
0.367633
0.376141
0.308716
0.213742
0.13024
0.0711968
0.048903
0.0282897
0.0132307
0.00534867
0.00259095
0.00241382
0.00271721
0.00263023
0.0022728
0.00175409
0.00118848
0.000698586
0.000350662
0.000147146
6.31663e-005
0.000219769
0.00159675
0.00821618
0.0285293
0.0685671
0.117323
0.14695
0.140679
0.109841
0.075754
0.048903
0.030585
0.0244372
0.0147708
0.0074721
0.00486302
0.00503604
0.00528759
0.00456028
0.00337781
0.00229122
0.00143816
0.000827948
0.000445448
0.000239745
0.000177471
0.00018434
0.000267641
0.00070764
0.0026634
0.00872892
0.0211312
0.0378913
0.0503937
0.049274
0.0387455
0.030585
0.0207193
0.021886
0.0150166
0.00901321
0.00727694
0.00844013
0.00951239
0.00837851
0.00566674
0.0033325
0.00190323
0.00109183
0.000677047
0.000511723
0.000447436
0.000431875
0.000444276
0.000490848
0.000636211
0.00108827
0.00236972
0.00566514
0.0124461
0.0210143
0.0218059
0.0207193
0.0187162
0.0214598
0.0136467
0.00855473
0.00772539
0.010018
0.0132385
0.0135422
0.00935752
0.00498764
0.00254311
0.00141666
0.000990189
0.000856474
0.000742548
0.000677459
0.000641367
0.000626121
0.00063664
0.00066961
0.0008034
0.00163293
0.0046357
0.0111611
0.0155457
0.0187162
0.0204716
0.0222947
0.0122842
0.00688621
0.00598138
0.00820924
0.0130189
0.0165025
0.0125573
0.00653277
0.0030498
0.00160385
0.00125525
0.00107205
0.000906138
0.000791335
0.000711481
0.000656636
0.000623342
0.000597223
0.000639336
0.00117916
0.00333709
0.00860725
0.0121558
0.0204716
0.0234938
0.0242553
0.0118709
0.0053464
0.00369048
0.00493637
0.00939308
0.0148874
0.0128769
0.0069536
0.00313316
0.00153617
0.00130828
0.00107062
0.000882421
0.000746192
0.000646449
0.00057195
0.000515331
0.000465196
0.000492942
0.000940879
0.00271219
0.00724324
0.00993525
0.0234938

VECTORS u double
1.95498 34.584 0.0
-7.53436 37.3441 0.0
-13.839 36.9969 0.0
-16.9215 34.7759 0.0
-14.5011 30.7279 0.0
-10.4233 28.3714 0.0
-8.54559 27.8863 0.0
-9.78087 29.0265 0.0
-12.1762 30.8905 0.0
-12.7821 32.1251 0.0
-9.83178 31.62 0.0
-2.29504 28.7112 0.0
2.50176 27.4638 0.0
7.5813 26.1133 0.0
13.2448 24.6305 0.0
19.4103 23.0565 0.0
25.9295 21.4241 0.0
32.4925 19.769 0.0
38.7152 18.1222 0.0
44.1467 16.5623 0.0
48.9459 14.9232 0.0
42.471 15.4361 0.0
26.7514 18.5826 0.0
11.8861 22.2276 0.0
-1.5991 26.1074 0.0
1.95498 34.584 0.0
-1.87263 37.3843 0.0
-10.4278 40.8496 0.0
-16.2131 40.4761 0.0
-19.153 37.7288 0.0
-15.3963 31.5741 0.0
-9.05369 27.8904 0.0
-7.53077 27.8847 0.0
-8.97617 29.1998 0.0
-11.3616 31.1488 0.0
-11.8859 32.4855 0.0
-8.78452 32.1029 0.0
-0.961735 29.1242 0.0
3.08989 28.0325 0.0
8.10063 26.6336 0.0
13.57 25.1604 0.0
19.4419 23.6375 0.0
25.5487 22.0966 0.0
31.5724 20.5725 0.0
37.1568 19.0793 0.0
41.8901 17.7298 0.0
45.1691 15.9394 0.0
34.6568 16.948 0.0
18.5283 21.3926 0.0
5.33825 26.0855 0.0
-5.32504 31.5773 0.0
-1.87263 37.3843 0.0
-6.97402 40.3626 0.0
-15.0595 43.609 0.0
-21.007 43.6182 0.0
-24.5384 41.04 0.0
-20.407 33.8092 0.0
-11.5945 28.978 0.0
-9.84586 29.1792 0.0
-10.1987 30.0137 0.0
-11.8325 31.6629 0.0
-11.9609 32.8888 0.0
-8.73245 32.5081 0.0
-1.50593 29.7813 0.0
2.78364 28.5186 0.0
7.63272 27.1236 0.0
12.8724 25.6768 0.0
18.4209 24.2113 0.0
24.1093 22.7552 0.0
29.7465 21.2403 0.0
35.005 19.7637 0.0
39.7598 18.3263 0.0
42.4045 15.3727 0.0
27.6041 19.3041 0.0
12.3938 24.1182 0.0
1.42301 29.3153 0.0
-7.79194 35.9888 0.0
-6.97402 40.3626 0.0
-13.1104 43.3889 0.0
-20.9858 46.109 0.0
-27.3814 46.3418 0.0
-31.655 44.017 0.0
-28.0527 36.9296 0.0
-17.9587 31.8099 0.0
-14.8844 31.5198 0.0
-13.386 31.5425 0.0
-13.6819 32.5889 0.0
-13.203 33.5164 0.0
-9.96692 33.0492 0.0
-3.8192 30.7146 0.0
1.3007 29.1102 0.0
6.01534 27.7125 0.0
11.153 26.2756 0.0
16.916 24.0678 0.0
22.8605 22.2514 0.0
29.9877 19.6604 0.0
33.761 19.7877 0.0
30.7869 24.6839 0.0
24.8746 37.4842 0.0
26.6188 18.2351 0.0
12.5228 24.5088 0.0
-0.477417 31.7506 0.0
-10.7972 39.3531 0.0
-13.1104 43.3889 0.0
-20.256 46.4462 0.0
-27.906 48.5359 0.0
-34.6309 48.7533 0.0
-39.3445 46.5681 0.0
-36.1435 40.1022 0.0
-25.8935 35.2553 0.0
-21.5551 34.3778 0.0
-18.4416 33.713 0.0
-17.2214 34.0502 0.0
-16.0428 34.5447 0.0
-12.9293 33.9429 0.0
-7.78216 31.9544 0.0
-1.90831 30.0485 0.0
4.29383 26.8171 0.0
6.40462 29.451 0.0
22.7573 16.0333 0.0
17.8487 23.3286 0.0
10.8523 31.8852 0.0
66.0331 -7.37928 0.0
62.164 1.83383 0.0
-12.8399 63.4184 0.0
36.801 9.19919 0.0
21.2617 18.8882 0.0
-1.52538 33.3311 0.0
-16.7255 43.2296 0.0
-20.256 46.4462 0.0
-28.3511 49.5797 0.0
-35.6514 51.012 0.0
-42.5266 51.0737 0.0
-47.47 49.0038 0.0
-44.812 43.4853 0.0
-35.2726 39.1518 0.0
-29.9219 37.7292 0.0
-25.679 36.566 0.0
-23.0979 36.2284 0.0
-21.1691 36.2038 0.0
-18.0774 35.3954 0.0
-13.2819 33.507 0.0
-6.41058 31.1631 0.0
22.2189 2.30952 0.0
2.72688 28.2673 0.0
45.6885 -6.1714 0.0
30.3057 13.6212 0.0
-23.5146 61.6837 0.0
-35.558 70.7561 0.0
4.78976 37.8691 0.0
-37.5946 64.6987 0.0
49.035 1.46121 0.0
-6.18306 36.2436 0.0
-19.7908 44.2803 0.0
-25.6221 47.8454 0.0
-28.3511 49.5797 0.0
-37.4689 52.8865 0.0
-44.4281 53.7361 0.0
-51.4772 53.6446 0.0
-56.8247 51.8557 0.0
-55.4184 47.6877 0.0
-47.4166 44.0102 0.0
-41.2544 42.0403 0.0
-36.1683 40.4422 0.0
-32.3734 39.4729 0.0
-29.3776 38.8408 0.0
-25.2111 37.3822 0.0
-16.0876 31.1402 0.0
40.0579 -24.3836 0.0
43.1103 -10.4732 0.0
-15.8124 53.5726 0.0
-25.4137 66.5027 0.0
-6.21729 53.377 0.0
-18.038 61.2714 0.0
-16.0081 57.6953 0.0
-3.18391 41.6922 0.0
-22.132 48.2291 0.0
-29.7928 50.702 0.0
-31.8435 50.9839 0.0
-33.6876 51.5774 0.0
-35.4732 52.2802 0.0
-37.4689 52.8865 0.0
-48.2768 56.6986 0.0
-55.1496 57.1181 0.0
-62.7294 57.0341 0.0
-68.9443 55.8529 0.0
-69.4217 53.2781 0.0
-63.8961 50.4573 0.0
-57.7717 48.1543 0.0
-52.181 46.2305 0.0
-47.3237 44.9855 0.0
-43.0791 45.2298 0.0
-39.6398 50.5916 0.0
-42.5854 66.3258 0.0
-50.1556 80.1511 0.0
-52.8762 83.8442 0.0
-53.5983 84.7316 0.0
-53.8684 84.8845 0.0
-52.9257 83.3633 0.0
-51.7529 80.491 0.0
-50.0895 75.5002 0.0
-47.8889 68.5573 0.0
-46.8507 63.0896 0.0
-46.9528 60.3553 0.0
-46.4369 58.5251 0.0
-46.0983 57.4053 0.0
-46.5346 56.8395 0.0
-48.2768 56.6986 0.0
-62.3937 61.682 0.0
-69.5186 61.8264 0.0
-77.5984 61.8292 0.0
-83.7468 61.0974 0.0
-84.7768 59.4027 0.0
-81.588 57.2198 0.0
-76.9522 54.9783 0.0
-71.5682 52.8646 0.0
-64.8409 51.4421 0.0
-55.6156 53.4987 0.0
-48.8194 64.335 0.0
-51.6951 77.3487 0.0
-56.3986 84.6582 0.0
-59.2072 87.6098 0.0
-60.8728 88.8437 0.0
-62.2152 89.4148 0.0
-63.5467 89.2562 0.0
-65.0896 88.029 0.0
-66.5568 85.1685 0.0
-66.9891 80.2865 0.0
-65.6086 74.2302 0.0
-63.3644 69.1461 0.0
-61.4264 65.7878 0.0
-60.2468 63.6405 0.0
-60.3532 62.3067 0.0
-62.3937 61.682 0.0
-80.8659 68.2762 0.0
-87.1841 67.8143 0.0
-93.1388 67.1298 0.0
-96.1394 65.7382 0.0
-95.7224 63.7511 0.0
-93.3006 61.4958 0.0
-89.6891 59.0302 0.0
-84.2994 56.1384 0.0
-74.5244 52.6239 0.0
-56.5935 51.5466 0.0
-46.3021 62.3662 0.0
-52.5243 76.6067 0.0
-59.0514 85.0029 0.0
-62.9112 88.8312 0.0
-65.5421 90.7792 0.0
-67.9437 92.0479 0.0
-70.6433 92.7741 0.0
-73.9859 92.7314 0.0
-77.9023 91.5536 0.0
-81.5179 88.8456 0.0
-83.2979 84.5009 0.0
-82.4489 79.3204 0.0
-80.2197 74.7663 0.0
-78.5439 71.5319 0.0
-78.607 69.4435 0.0
-80.8659 68.2762 0.0
-98.3883 74.4207 0.0
-101.436 72.5939 0.0
-103.097 70.5125 0.0
-102.846 68.1637 0.0
-101.233 65.7009 0.0
-98.7955 63.178 0.0
-95.4486 60.4373 0.0
-90.2441 57.0219 0.0
-79.9011 51.7929 0.0
-54.2705 44.5123 0.0
-38.2491 55.2174 0.0
-52.1971 74.247 0.0
-60.8099 84.1728 0.0
-65.5853 88.875 0.0
-68.9629 91.4202 0.0
-72.1566 93.2485 0.0
-75.774 94.6027 0.0
-80.233 95.3313 0.0
-85.6154 95.1867 0.0
-91.3218 93.9119 0.0
-96.053 91.3287 0.0
-98.4922 87.5723 0.0
-98.5087 83.3444 0.0
-97.5721 79.5589 0.0
-97.408 76.6179 0.0
-98.3883 74.4207 0.0
-108.45 77.0717 0.0
-108.614 74.1641 0.0
-107.657 71.2212 0.0
-105.966 68.3906 0.0
-103.817 65.6692 0.0
-101.238 62.9923 0.0
-97.8932 60.1643 0.0
-92.8224 56.6898 0.0
-83.0524 51.1146 0.0
-50.7709 37.0526 0.0
-22.1138 42.8424 0.0
-51.6993 70.5526 0.0
-62.0992 82.3588 0.0
-67.4536 87.6534 0.0
-71.3628 90.6045 0.0
-75.1374 92.8379 0.0
-79.3735 94.6285 0.0
-84.4858 95.8389 0.0
-90.6064 96.258 0.0
-97.2852 95.6973 0.0
-103.453 94.0305 0.0
-107.862 91.2631 0.0
-109.841 87.6765 0.0
-109.894 83.8337 0.0
-109.29 80.2394 0.0
-108.45 77.0717 0.0
-112.956 76.0937 0.0
-111.823 72.7681 0.0
-109.846 69.5034 0.0
-107.596 66.4784 0.0
-105.153 63.629 0.0
-102.394 60.8886 0.0
-98.9349 58.0946 0.0
-93.6552 54.7149 0.0
-81.6009 48.2323 0.0
-11.9555 13.3053 0.0
-13.3988 27.8827 0.0
-50.1512 64.4324 0.0
-62.7672 79.1423 0.0
-68.5167 84.8573 0.0
-72.799 88.0253 0.0
-77.0096 90.5147 0.0
-81.6807 92.5926 0.0
-87.18 94.1003 0.0
-93.6346 94.8151 0.0
-100.661 94.5596 0.0
-107.316 93.2356 0.0
-112.452 90.841 0.0
-115.26 87.5298 0.0
-115.766 83.6672 0.0
-114.834 79.7284 0.0
-112.956 76.0937 0.0
-115.138 72.2842 0.0
-113.519 68.8725 0.0
-111.112 65.4911 0.0
-108.559 62.3635 0.0
-105.857 59.4217 0.0
-102.811 56.6213 0.0
-99.0071 53.8533 0.0
-93.4269 50.7378 0.0
-81.021 44.9092 0.0
46.3901 -19.3169 0.0
-1.90743 8.53403 0.0
-46.5255 54.487 0.0
-62.643 74.2461 0.0
-68.7357 80.3548 0.0
-73.277 83.5585 0.0
-77.8179 86.1431 0.0
-82.8131 88.3694 0.0
-88.5652 90.0474 0.0
-95.1737 90.92 0.0
-102.288 90.7882 0.0
-109.058 89.5609 0.0
-114.429 87.2573 0.0
-117.592 84.0188 0.0
-118.381 80.1433 0.0
-117.404 76.0711 0.0
-115.138 72.2842 0.0
-116.245 66.454 0.0
-114.483 63.0855 0.0
-111.857 59.6506 0.0
-109.09 56.4359 0.0
-106.148 53.3906 0.0
-102.735 50.4706 0.0
-98.0369 47.4406 0.0
-88.9535 43.0983 0.0
-39.5068 22.1214 0.0
30.4376 -14.935 0.0
0.323372 -0.954713 0.0
-42.2787 41.9604 0.0
-61.6943 67.9826 0.0
-68.1047 74.5039 0.0
-72.8107 77.5824 0.0
-77.5812 80.0847 0.0
-82.8128 82.3049 0.0
-88.7448 84.0376 0.0
-95.4401 84.9884 0.0
-102.567 84.9177 0.0
-109.349 83.7189 0.0
-114.825 81.4298 0.0
-118.238 78.2137 0.0
-119.339 74.3554 0.0
-118.549 70.2617 0.0
-116.245 66.454 0.0
-116.52 59.8534 0.0
-114.821 56.5886 0.0
-112.081 53.1189 0.0
-109.102 49.7871 0.0
-105.78 46.5458 0.0
-101.461 43.2542 0.0