# vtk DataFile Version 2.0
Particulate Flow Equations Solution
ASCII
DATASET STRUCTURED_GRID
DIMENSIONS 26 26 1
POINTS 676 double
-10 -10 0
-9.23077 -10 0
-8.46154 -10 0
-7.69231 -10 0
-6.92308 -10 0
-6.15385 -10 0
-5.38462 -10 0
-4.61538 -10 0
-3.84615 -10 0
-3.07692 -10 0
-2.30769 -10 0
-1.53846 -10 0
-0.769231 -10 0
5.55112e-016 -10 0
0.769231 -10 0
1.53846 -10 0
2.30769 -10 0
3.07692 -10 0
3.84615 -10 0
4.61538 -10 0
5.38462 -10 0
6.15385 -10 0
6.92308 -10 0
7.69231 -10 0
8.46154 -10 0
10 -10 0
-10 -9.23077 0
-9.23077 -9.23077 0
-8.46154 -9.23077 0
-7.69231 -9.23077 0
-6.92308 -9.23077 0
-6.15385 -9.23077 0
-5.38462 -9.23077 0
-4.61538 -9.23077 0
-3.84615 -9.23077 0
-3.07692 -9.23077 0
-2.30769 -9.23077 0
-1.53846 -9.23077 0
-0.769231 -9.23077 0
5.55112e-016 -9.23077 0
0.769231 -9.23077 0
1.53846 -9.23077 0
2.30769 -9.23077 0
3.07692 -9.23077 0
3.84615 -9.23077 0
4.61538 -9.23077 0
5.38462 -9.23077 0
6.15385 -9.23077 0
6.92308 -9.23077 0
7.69231 -9.23077 0
8.46154 -9.23077 0
10 -9.23077 0
-10 -8.46154 0
-9.23077 -8.46154 0
-8.46154 -8.46154 0
-7.69231 -8.46154 0
-6.92308 -8.46154 0
-6.15385 -8.46154 0
-5.38462 -8.46154 0
-4.61538 -8.46154 0
-3.84615 -8.46154 0
-3.07692 -8.46154 0
-2.30769 -8.46154 0
-1.53846 -8.46154 0
-0.769231 -8.46154 0
5.55112e-016 -8.46154 0
0.769231 -8.46154 0
1.53846 -8.46154 0
2.30769 -8.46154 0
3.07692 -8.46154 0
3.84615 -8.46154 0
4.61538 -8.46154 0
5.38462 -8.46154 0
6.15385 -8.46154 0
6.92308 -8.46154 0
7.69231 -8.46154 0
8.46154 -8.46154 0
10 -8.46154 0
-10 -7.69231 0
-9.23077 -7.69231 0
-8.46154 -7.69231 0
-7.69231 -7.69231 0
-6.92308 -7.69231 0
-6.15385 -7.69231 0
-5.38462 -7.69231 0
-4.61538 -7.69231 0
-3.84615 -7.69231 0
-3.07692 -7.69231 0
-2.30769 -7.69231 0
-1.53846 -7.69231 0
-0.769231 -7.69231 0
5.55112e-016 -7.69231 0
0.769231 -7.69231 0
1.53846 -7.69231 0
2.30769 -7.69231 0
3.07692 -7.69231 0
3.84615 -7.69231 0
4.61538 -7.69231 0
5.38462 -7.69231 0
6.15385 -7.69231 0
6.92308 -7.69231 0
7.69231 -7.69231 0
8.46154 -7.69231 0
10 -7.69231 0
-10 -6.92308 0
-9.23077 -6.92308 0
-8.46154 -6.92308 0
-7.69231 -6.92308 0
-6.92308 -6.92308 0
-6.15385 -6.92308 0
-5.38462 -6.92308 0
-4.61538 -6.92308 0
-3.84615 -6.92308 0
-3.07692 -6.92308 0
-2.30769 -6.92308 0
-1.53846 -6.92308 0
-0.769231 -6.92308 0
5.55112e-016 -6.92308 0
0.769231 -6.92308 0
1.53846 -6.92308 0
2.30769 -6.92308 0
3.07692 -6.92308 0
3.84615 -6.92308 0
4.61538 -6.92308 0
5.38462 -6.92308 0
6.15385 -6.92308 0
6.92308 -6.92308 0
7.69231 -6.92308 0
8.46154 -6.92308 0
10 -6.92308 0
-10 -6.15385 0
-9.23077 -6.15385 0
-8.46154 -6.15385 0
-7.69231 -6.15385 0
-6.92308 -6.15385 0
-6.15385 -6.15385 0
-5.38462 -6.15385 0
-4.61538 -6.15385 0
-3.84615 -6.15385 0
-3.07692 -6.15385 0
-2.30769 -6.15385 0
-1.53846 -6.15385 0
-0.769231 -6.15385 0
5.55112e-016 -6.15385 0
0.769231 -6.15385 0
1.53846 -6.15385 0
2.30769 -6.15385 0
3.07692 -6.15385 0
3.84615 -6.15385 0
4.61538 -6.15385 0
5.38462 -6.15385 0
6.15385 -6.15385 0
6.92308 -6.15385 0
7.69231 -6.15385 0
8.46154 -6.15385 0
10 -6.15385 0
-10 -5.38462 0
-9.23077 -5.38462 0
-8.46154 -5.38462 0
-7.69231 -5.38462 0
-6.92308 -5.38462 0
-6.15385 -5.38462 0
-5.38462 -5.38462 0
-4.61538 -5.38462 0
-3.84615 -5.38462 0
-3.07692 -5.38462 0
-2.30769 -5.38462 0
-1.53846 -5.38462 0
-0.769231 -5.38462 0
5.55112e-016 -5.38462 0
0.769231 -5.38462 0
1.53846 -5.38462 0
2.30769 -5.38462 0
3.07692 -5.38462 0
3.84615 -5.38462 0
4.61538 -5.38462 0
5.38462 -5.38462 0
6.15385 -5.38462 0
6.92308 -5.38462 0
7.69231 -5.38462 0
8.46154 -5.38462 0
10 -5.38462 0
-10 -4.61538 0
-9.23077 -4.61538 0
-8.46154 -4.61538 0
-7.69231 -4.61538 0
-6.92308 -4.61538 0
-6.15385 -4.61538 0
-5.38462 -4.61538 0
-4.61538 -4.61538 0
-3.84615 -4.61538 0
-3.07692 -4.61538 0
-2.30769 -4.61538 0
-1.53846 -4.61538 0
-0.769231 -4.61538 0
5.55112e-016 -4.61538 0
0.769231 -4.61538 0
1.53846 -4.61538 0
2.30769 -4.61538 0
3.07692 -4.61538 0
3.84615 -4.61538 0
4.61538 -4.61538 0
5.38462 -4.61538 0
6.15385 -4.61538 0
6.92308 -4.61538 0
7.69231 -4.61538 0
8.46154 -4.61538 0
10 -4.61538 0
-10 -3.84615 0
-9.23077 -3.84615 0
-8.46154 -3.84615 0
-7.69231 -3.84615 0
-6.92308 -3.84615 0
-6.15385 -3.84615 0
-5.38462 -3.84615 0
-4.61538 -3.84615 0
-3.84615 -3.84615 0
-3.07692 -3.84615 0
-2.30769 -3.84615 0
-1.53846 -3.84615 0
-0.769231 -3.84615 0
5.55112e-016 -3.84615 0
0.769231 -3.84615 0
1.53846 -3.84615 0
2.30769 -3.84615 0
3.07692 -3.84615 0
3.84615 -3.84615 0
4.61538 -3.84615 0
5.38462 -3.84615 0
6.15385 -3.84615 0
6.92308 -3.84615 0
7.69231 -3.84615 0
8.46154 -3.84615 0
10 -3.84615 0
-10 -3.07692 0
-9.23077 -3.07692 0
-8.46154 -3.07692 0
-7.69231 -3.07692 0
-6.92308 -3.07692 0
-6.15385 -3.07692 0
-5.38462 -3.07692 0
-4.61538 -3.07692 0
-3.84615 -3.07692 0
-3.07692 -3.07692 0
-2.30769 -3.07692 0
-1.53846 -3.07692 0
-0.769231 -3.07692 0
5.55112e-016 -3.07692 0
0.769231 -3.07692 0
1.53846 -3.07692 0
2.30769 -3.07692 0
3.07692 -3.07692 0
3.84615 -3.07692 0
4.61538 -3.07692 0
5.38462 -3.07692 0
6.15385 -3.07692 0
6.92308 -3.07692 0
7.69231 -3.07692 0
8.46154 -3.07692 0
10 -3.07692 0
-10 -2.30769 0
-9.23077 -2.30769 0
-8.46154 -2.30769 0
-7.69231 -2.30769 0
-6.92308 -2.30769 0
-6.15385 -2.30769 0
-5.38462 -2.30769 0
-4.61538 -2.30769 0
-3.84615 -2.30769 0
-3.07692 -2.30769 0
-2.30769 -2.30769 0
-1.53846 -2.30769 0
-0.769231 -2.30769 0
5.55112e-016 -2.30769 0
0.769231 -2.30769 0
1.53846 -2.30769 0
2.30769 -2.30769 0
3.07692 -2.30769 0
3.84615 -2.30769 0
4.61538 -2.30769 0
5.38462 -2.30769 0
6.15385 -2.30769 0
6.92308 -2.30769 0
7.69231 -2.30769 0
8.46154 -2.30769 0
10 -2.30769 0
-10 -1.53846 0
-9.23077 -1.53846 0
-8.46154 -1.53846 0
-7.69231 -1.53846 0
-6.92308 -1.53846 0
-6.15385 -1.53846 0
-5.38462 -1.53846 0
-4.61538 -1.53846 0
-3.84615 -1.53846 0
-3.07692 -1.53846 0
-2.30769 -1.53846 0
-1.53846 -1.53846 0
-0.769231 -1.53846 0
5.55112e-016 -1.53846 0
0.769231 -1.53846 0
1.53846 -1.53846 0
2.30769 -1.53846 0
3.07692 -1.53846 0
3.84615 -1.53846 0
4.61538 -1.53846 0
5.38462 -1.53846 0
6.15385 -1.53846 0
6.92308 -1.53846 0
7.69231 -1.53846 0
8.46154 -1.53846 0
10 -1.53846 0
-10 -0.769231 0
-9.23077 -0.769231 0
-8.46154 -0.769231 0
-7.69231 -0.769231 0
-6.92308 -0.769231 0
-6.15385 -0.769231 0
-5.38462 -0.769231 0
-4.61538 -0.769231 0
-3.84615 -0.769231 0
-3.07692 -0.769231 0
-2.30769 -0.769231 0
-1.53846 -0.769231 0
-0.769231 -0.769231 0
5.55112e-016 -0.769231 0
0.769231 -0.769231 0
1.53846 -0.769231 0
2.30769 -0.769231 0
3.07692 -0.769231 0
3.84615 -0.769231 0
4.61538 -0.769231 0
5.38462 -0.769231 0
6.15385 -0.769231 0
6.92308 -0.769231 0
7.69231 -0.769231 0
8.46154 -0.769231 0
10 -0.769231 0
-10 5.55112e-016 0
-9.23077 5.55112e-016 0
-8.46154 5.55112e-016 0
-7.69231 5.55112e-016 0
-6.92308 5.55112e-016 0
-6.15385 5.55112e-016 0
-5.38462 5.55112e-016 0
-4.61538 5.55112e-016 0
-3.84615 5.55112e-016 0
-3.07692 5.55112e-016 0
-2.30769 5.55112e-016 0
-1.53846 5.55112e-016 0
-0.769231 5.55112e-016 0
5.55112e-016 5.55112e-016 0
0.769231 5.55112e-016 0
1.53846 5.55112e-016 0
2.30769 5.55112e-016 0
3.07692 5.55112e-016 0
3.84615 5.55112e-016 0
4.61538 5.55112e-016 0
5.38462 5.55112e-016 0
6.15385 5.55112e-016 0
6.92308 5.55112e-016 0
7.69231 5.55112e-016 0
8.46154 5.55112e-016 0
10 5.55112e-016 0
-10 0.769231 0
-9.23077 0.769231 0
-8.46154 0.769231 0
-7.69231 0.769231 0
-6.92308 0.769231 0
-6.15385 0.769231 0
-5.38462 0.769231 0
-4.61538 0.769231 0
-3.84615 0.769231 0
-3.07692 0.769231 0
-2.30769 0.769231 0
-1.53846 0.769231 0
-0.769231 0.769231 0
5.55112e-016 0.769231 0
0.769231 0.769231 0
1.53846 0.769231 0
2.30769 0.769231 0
3.07692 0.769231 0
3.84615 0.769231 0
4.61538 0.769231 0
5.38462 0.769231 0
6.15385 0.769231 0
6.92308 0.769231 0
7.69231 0.769231 0
8.46154 0.769231 0
10 0.769231 0
-10 1.53846 0
-9.23077 1.53846 0
-8.46154 1.53846 0
-7.69231 1.53846 0
-6.92308 1.53846 0
-6.15385 1.53846 0
-5.38462 1.53846 0
-4.61538 1.53846 0
-3.84615 1.53846 0
-3.07692 1.53846 0
-2.30769 1.53846 0
-1.53846 1.53846 0
-0.769231 1.53846 0
5.55112e-016 1.53846 0
0.769231 1.53846 0
1.53846 1.53846 0
2.30769 1.53846 0
3.07692 1.53846 0
3.84615 1.53846 0
4.61538 1.53846 0
5.38462 1.53846 0
6.15385 1.53846 0
6.92308 1.53846 0
7.69231 1.53846 0
8.46154 1.53846 0
10 1.53846 0
-10 2.30769 0
-9.23077 2.30769 0
-8.46154 2.30769 0
-7.69231 2.30769 0
-6.92308 2.30769 0
-6.15385 2.30769 0
-5.38462 2.30769 0
-4.61538 2.30769 0
-3.84615 2.30769 0
-3.07692 2.30769 0
-2.30769 2.30769 0
-1.53846 2.30769 0
-0.769231 2.30769 0
5.55112e-016 2.30769 0
0.769231 2.30769 0
1.53846 2.30769 0
2.30769 2.30769 0
3.07692 2.30769 0
3.84615 2.30769 0
4.61538 2.30769 0
5.38462 2.30769 0
6.15385 2.30769 0
6.92308 2.30769 0
7.69231 2.30769 0
8.46154 2.30769 0
10 2.30769 0
-10 3.07692 0
-9.23077 3.07692 0
-8.46154 3.07692 0
-7.69231 3.07692 0
-6.92308 3.07692 0
-6.15385 3.07692 0
-5.38462 3.07692 0
-4.61538 3.07692 0
-3.84615 3.07692 0
-3.07692 3.07692 0
-2.30769 3.07692 0
-1.53846 3.07692 0
-0.769231 3.07692 0
5.55112e-016 3.07692 0
0.769231 3.07692 0
1.53846 3.07692 0
2.30769 3.07692 0
3.07692 3.07692 0
3.84615 3.07692 0
4.61538 3.07692 0
5.38462 3.07692 0
6.15385 3.07692 0
6.92308 3.07692 0
7.69231 3.07692 0
8.46154 3.07692 0
10 3.07692 0
-10 3.84615 0
-9.23077 3.84615 0
-8.46154 3.84615 0
-7.69231 3.84615 0
-6.92308 3.84615 0
-6.15385 3.84615 0
-5.38462 3.84615 0
-4.61538 3.84615 0
-3.84615 3.84615 0
-3.07692 3.84615 0
-2.30769 3.84615 0
-1.53846 3.84615 0
-0.769231 3.84615 0
5.55112e-016 3.84615 0
0.769231 3.84615 0
1.53846 3.84615 0
2.30769 3.84615 0
3.07692 3.84615 0
3.84615 3.84615 0
4.61538 3.84615 0
5.38462 3.84615 0
6.15385 3.84615 0
6.92308 3.84615 0
7.69231 3.84615 0
8.46154 3.84615 0
10 3.84615 0
-10 4.61538 0
-9.23077 4.61538 0
-8.46154 4.61538 0
-7.69231 4.61538 0
-6.92308 4.61538 0
-6.15385 4.61538 0
-5.38462 4.61538 0
-4.61538 4.61538 0
-3.84615 4.61538 0
-3.07692 4.61538 0
-2.30769 4.61538 0
-1.53846 4.61538 0
-0.769231 4.61538 0
5.55112e-016 4.61538 0
0.769231 4.61538 0
1.53846 4.61538 0
2.30769 4.61538 0
3.07692 4.61538 0
3.84615 4.61538 0
4.61538 4.61538 0
5.38462 4.61538 0
6.15385 4.61538 0
6.92308 4.61538 0
7.69231 4.61538 0
8.46154 4.61538 0
10 4.61538 0
-10 5.38462 0
-9.23077 5.38462 0
-8.46154 5.38462 0
-7.69231 5.38462 0
-6.92308 5.38462 0
-6.15385 5.38462 0
-5.38462 5.38462 0
-4.61538 5.38462 0
-3.84615 5.38462 0
-3.07692 5.38462 0
-2.30769 5.38462 0
-1.53846 5.38462 0
-0.769231 5.38462 0
5.55112e-016 5.38462 0
0.769231 5.38462 0
1.53846 5.38462 0
2.30769 5.38462 0
3.07692 5.38462 0
3.84615 5.38462 0
4.61538 5.38462 0
5.38462 5.38462 0
6.15385 5.38462 0
6.92308 5.38462 0
7.69231 5.38462 0
8.46154 5.38462 0
10 5.38462 0
-10 6.15385 0
-9.23077 6.15385 0
-8.46154 6.15385 0
-7.69231 6.15385 0
-6.92308 6.15385 0
-6.15385 6.15385 0
-5.38462 6.15385 0
-4.61538 6.15385 0
-3.84615 6.15385 0
-3.07692 6.15385 0
-2.30769 6.15385 0
-1.53846 6.15385 0
-0.769231 6.15385 0
5.55112e-016 6.15385 0
0.769231 6.15385 0
1.53846 6.15385 0
2.30769 6.15385 0
3.07692 6.15385 0
3.84615 6.15385 0
4.61538 6.15385 0
5.38462 6.15385 0
6.15385 6.15385 0
6.92308 6.15385 0
7.69231 6.15385 0
8.46154 6.15385 0
10 6.15385 0
-10 6.92308 0
-9.23077 6.92308 0
-8.46154 6.92308 0
-7.69231 6.92308 0
-6.92308 6.92308 0
-6.15385 6.92308 0
-5.38462 6.92308 0
-4.61538 6.92308 0
-3.84615 6.92308 0
-3.07692 6.92308 0
-2.30769 6.92308 0
-1.53846 6.92308 0
-0.769231 6.92308 0
5.55112e-016 6.92308 0
0.769231 6.92308 0
1.53846 6.92308 0
2.30769 6.92308 0
3.07692 6.92308 0
3.84615 6.92308 0
4.61538 6.92308 0
5.38462 6.92308 0
6.15385 6.92308 0
6.92308 6.92308 0
7.69231 6.92308 0
8.46154 6.92308 0
10 6.92308 0
-10 7.69231 0
-9.23077 7.69231 0
-8.46154 7.69231 0
-7.69231 7.69231 0
-6.92308 7.69231 0
-6.15385 7.69231 0
-5.38462 7.69231 0
-4.61538 7.69231 0
-3.84615 7.69231 0
-3.07692 7.69231 0
-2.30769 7.69231 0
-1.53846 7.69231 0
-0.769231 7.69231 0
5.55112e-016 7.69231 0
0.769231 7.69231 0
1.53846 7.69231 0
2.30769 7.69231 0
3.07692 7.69231 0
3.84615 7.69231 0
4.61538 7.69231 0
5.38462 7.69231 0
6.15385 7.69231 0
6.92308 7.69231 0
7.69231 7.69231 0
8.46154 7.69231 0
10 7.69231 0
-10 8.46154 0
-9.23077 8.46154 0
-8.46154 8.46154 0
-7.69231 8.46154 0
-6.92308 8.46154 0
-6.15385 8.46154 0
-5.38462 8.46154 0
-4.61538 8.46154 0
-3.84615 8.46154 0
-3.07692 8.46154 0
-2.30769 8.46154 0
-1.53846 8.46154 0
-0.769231 8.46154 0
5.55112e-016 8.46154 0
0.769231 8.46154 0
1.53846 8.46154 0
2.30769 8.46154 0
3.07692 8.46154 0
3.84615 8.46154 0
4.61538 8.46154 0
5.38462 8.46154 0
6.15385 8.46154 0
6.92308 8.46154 0
7.69231 8.46154 0
8.46154 8.46154 0
10 8.46154 0
-10 10 0
-9.23077 10 0
-8.46154 10 0
-7.69231 10 0
-6.92308 10 0
-6.15385 10 0
-5.38462 10 0
-4.61538 10 0
-3.84615 10 0
-3.07692 10 0
-2.30769 10 0
-1.53846 10 0
-0.769231 10 0
5.55112e-016 10 0
0.769231 10 0
1.53846 10 0
2.30769 10 0
3.07692 10 0
3.84615 10 0
4.61538 10 0
5.38462 10 0
6.15385 10 0
6.92308 10 0
7.69231 10 0
8.46154 10 0
10 10 0

POINT_DATA 676
SCALARS h double 1
LOOkUP_TABLE default
0.150016
0.155746
0.149881
0.13481
0.11436
0.0924462
0.0720024
0.0546465
0.0408737
0.0304629
0.02286
0.0174404
0.013651
0.0110687
0.00942345
0.00862304
0.00881626
0.0105108
0.0147014
0.0228408
0.0364378
0.0562441
0.0813213
0.108542
0.133084
0.150016
0.107387
0.11742
0.118755
0.111945
0.0991293
0.0832773
0.0671091
0.0524934
0.0403461
0.0308428
0.023723
0.0185488
0.0148695
0.0123055
0.0105823
0.00954508
0.00918516
0.00969642
0.0115653
0.0156376
0.0230261
0.0347234
0.0509418
0.0704948
0.0905501
0.107387
0.0739268
0.0844884
0.0895196
0.08843
0.081932
0.0718346
0.0602422
0.0489104
0.0389438
0.0308095
0.0245174
0.0198311
0.0164309
0.0140126
0.0123342
0.0112343
0.0106441
0.0106108
0.0113442
0.0132739
0.0170637
0.0234853
0.0330855
0.045701
0.0600856
0.0739268
0.0506801
0.0594245
0.0652768
0.0672098
0.0650604
0.0596285
0.052253
0.0443059
0.0368336
0.0304301
0.0252926
0.021357
0.0184339
0.0163064
0.0147852
0.0137323
0.0130695
0.0127875
0.0129648
0.0138009
0.0156432
0.0189657
0.0242361
0.031657
0.0408442
0.0506801
0.0365243
0.0425913
0.0474742
0.0502613
0.0504537
0.0482058
0.0441898
0.0392965
0.0343378
0.0298693
0.0261574
0.0232409
0.0210262
0.0193715
0.0181416
0.0172347
0.0165901
0.0161895
0.0160612
0.0162941
0.0170566
0.0186031
0.0212334
0.0251775
0.0304159
0.0365243
0.0293102
0.032782
0.0359597
0.0382635
0.0392233
0.0387206
0.0369986
0.0345344
0.0318484
0.0293475
0.0272553
0.0256234
0.0243903
0.0234483
0.0226949
0.0220602
0.0215121
0.0210504
0.0207
0.0205105
0.0205663
0.0209962
0.0219695
0.0236543
0.0261332
0.0293102
0.0269419
0.0282402
0.0296288
0.0308445
0.0315894
0.0317205
0.0312945
0.0305313
0.0297126
0.0290704
0.0287169
0.0286342
0.0287124
0.0288098
0.0288073
0.0286391
0.0282964
0.0278118
0.0272385
0.0266357
0.0260678
0.0256125
0.0253698
0.0254547
0.025966
0.0269419
0.0279296
0.02742
0.0271613
0.0271113
0.0271415
0.027188
0.0272822
0.0275447
0.0281298
0.0291453
0.0305881
0.0323236
0.034118
0.0357073
0.0368726
0.0374913
0.0375477
0.0371076
0.0362772
0.0351676
0.033877
0.032493
0.0311046
0.0298117
0.0287205
0.0279296
0.03146
0.0292971
0.0274934
0.0261402
0.0252228
0.0247635
0.0248371
0.0255711
0.0271054
0.0295196
0.032755
0.0365712
0.0405659
0.0442605
0.0472204
0.049158
0.0499772
0.0497497
0.0486497
0.0468835
0.0446422
0.0420865
0.0393557
0.0365822
0.0339024
0.03146
0.0372665
0.0333663
0.0299705
0.0272448
0.0252284
0.0239963
0.0236711
0.0244309
0.0264799
0.0299714
0.0348983
0.0409945
0.0477078
0.0542818
0.0599312
0.0640381
0.066282
0.0666568
0.0653904
0.0628254
0.0593183
0.0551858
0.0506942
0.0460725
0.041529
0.0372665
0.0454916
0.039536
0.0343189
0.0300419
0.0267468
0.0245164
0.023491
0.0238931
0.0260198
0.0301731
0.03652
0.0449143
0.0547669
0.0650613
0.0745533
0.0820854
0.0868747
0.0886497
0.0876039
0.0842296
0.0791317
0.0728954
0.0660276
0.0589476
0.0520027
0.0454916
0.0565885
0.0480252
0.0405631
0.0344156
0.0295821
0.0261056
0.0240973
0.0237842
0.0255338
0.0298179
0.0370722
0.0474482
0.0605351
0.0752159
0.0897922
0.102381
0.111415
0.116024
0.116133
0.112302
0.105443
0.0965538
0.0865444
0.0761718
0.0660322
0.0565885
0.0712393
0.0592782
0.0489438
0.0404502
0.0337151
0.0286937
0.0254137
0.0240459
0.0249646
0.0287641
0.0361687
0.0477679
0.0636028
0.0827791
0.103365
0.122728
0.138214
0.147881
0.15093
0.147712
0.139391
0.127499
0.113567
0.0989093
0.0845509
0.0712393
0.0902413
0.0738692
0.0598327
0.0483553
0.039242
0.0323147
0.0274624
0.0247311
0.0244137
0.0271226
0.0337859
0.0454538
0.0628368
0.0856806
0.112297
0.139603
0.163788
0.181374
0.190179
0.189753
0.181195
0.16656
0.148204
0.128296
0.108562
0.0902413
0.114304
0.092362
0.0736281
0.058382
0.0463042
0.0370472
0.0303107
0.0259514
0.0240916
0.0252308
0.0303309
0.0407617
0.0579325
0.0825586
0.113812
0.148839
0.183073
0.211363
0.229486
0.235311
0.229136
0.213192
0.190704
0.164986
0.138838
0.114304
0.143713
0.115088
0.0906067
0.0707205
0.0550128
0.0429521
0.0340117
0.0278078
0.0242207
0.0235204
0.026508
0.0346068
0.049704
0.0735234
0.106572
0.147101
0.190721
0.231134
0.261858
0.2782
0.278539
0.264404
0.239519
0.208443
0.175415
0.143713
0.177856
0.141833
0.110725
0.0853745
0.065368
0.0500178
0.0385583
0.0303359
0.0249454
0.0223531
0.0230492
0.0282278
0.0398573
0.0603443
0.0915804
0.13357
0.183284
0.234513
0.27918
0.309729
0.321506
0.313982
0.290368
0.256076
0.216927
0.177856
0.21471
0.171473
0.133382
0.102017
0.0771766
0.0581138
0.043857
0.0334828
0.0262884
0.0219118
0.0204628
0.0227157
0.0303235
0.0458184
0.0720248
0.110756
0.161184
0.218708
0.275219
0.321105
0.34829
0.35285
0.335915
0.302625
0.25997
0.21471
0.25051
0.201675
0.157201
0.119853
0.0899746
0.0669564
0.0497194
0.037114
0.0281611
0.0221868
0.0189272
0.0186804
0.0225465
0.0326528
0.0520196
0.0836784
0.129056
0.186198
0.248814
0.30711
0.350522
0.371257
0.366838
0.340402
0.298907
0.25051
0.279937
0.228839
0.179919
0.137527
0.10297
0.0760822
0.0558615
0.0410349
0.0304063
0.0230375
0.0183456
0.0162036
0.0171232
0.0225358
0.0349865
0.0578074
0.0939487
0.144144
0.205138
0.269096
0.325084
0.362453
0.374566
0.360906
0.326586
0.279937
0.297086
0.248521
0.198516
0.153134
0.115028
0.0848354
0.0619039
0.045008
0.03284
0.024273
0.0184824
0.0150163
0.0139034
0.015869
0.0226352
0.0370312
0.0624495
0.101451
0.153847
0.215108
0.276278
0.326112
0.354835
0.357666
0.336181
0.297086
0.297189
0.256406
0.209684
0.164414
0.124728
0.092379
0.0673705
0.0487573
0.0352739
0.0257095
0.0190864
0.0147352
0.012352
0.0121199
0.0149502
0.0227667
0.0384905
0.0652991
0.105107
0.156714
0.214569
0.269259
0.310149
0.329161
0.323693
0.297189
0.278513
0.249682
0.210646
0.169163
0.130543
0.0977545
0.0717009
0.0519655
0.037516
0.02719
0.0199562
0.0150257
0.0118969
0.0104111
0.0108871
0.0143687
0.0228559
0.0391482
0.0659664
0.104425
0.1524
0.203762
0.249403
0.280107
0.289962
0.278513
0.243484
0.228306
0.200138
0.165844
0.131165
0.100029
0.0743042
0.0542882
0.0393701
0.0285843
0.020955
0.0156641
0.0121164
0.00996963
0.00919328
0.0102101
0.0141247
0.022873
0.0389414
0.0644291
0.0996311
0.141745
0.184605
0.220093
0.240929
0.243484
0.197879
0.194961
0.178695
0.153846
0.125611
0.0982806
0.0744817
0.0552553
0.0405405
0.0297053
0.0219403
0.0164862
0.0127359
0.0102713
0.0088886
0.0086613
0.0100764
0.0142205
0.0228368
0.0379584
0.0609959
0.0915296
0.126417
0.159961
0.18551
0.197879
0.150016
0.155746
0.149881
0.13481
0.11436
0.0924462
0.0720024
0.0546465
0.0408737
0.0304629
0.02286
0.0174404
0.013651
0.0110687
0.00942345
0.00862304
0.00881626
0.0105108
0.0147014
0.0228408
0.0364378
0.0562441
0.0813213
0.108542
0.133084
0.150016

VECTORS u double
-166.333 141.619 0.0
-168.218 141.566 0.0
-169.542 141.24 0.0
-170.424 140.675 0.0
-170.875 139.876 0.0
-170.89 138.869 0.0
-170.46 137.704 0.0
-169.576 136.452 0.0
-168.231 135.201 0.0
-166.428 134.053 0.0
-164.193 133.112 0.0
-161.579 132.469 0.0
-158.674 132.18 0.0
-155.601 132.258 0.0
-152.531 132.664 0.0
-149.747 133.33 0.0
-147.773 134.189 0.0
-147.322 135.216 0.0
-148.688 136.38 0.0
-151.283 137.572 0.0
-154.288 138.668 0.0
-157.244 139.596 0.0
-159.996 140.338 0.0
-162.487 140.879 0.0
-164.686 141.29 0.0
-166.333 141.619 0.0
-164.231 140.84 0.0
-166.205 141.072 0.0
-167.647 140.755 0.0
-168.662 140.263 0.0
-169.243 139.577 0.0
-169.373 138.716 0.0
-169.036 137.729 0.0
-168.215 136.687 0.0
-166.903 135.686 0.0
-165.109 134.834 0.0
-162.875 134.235 0.0
-160.282 133.971 0.0
-157.451 134.074 0.0
-154.531 134.515 0.0
-151.686 135.21 0.0
-149.103 136.023 0.0
-147.045 136.794 0.0
-145.925 137.379 0.0
-146.224 137.748 0.0
-148.049 138.034 0.0
-150.881 138.39 0.0
-154.035 138.848 0.0
-157.093 139.348 0.0
-159.944 139.835 0.0
-162.471 140.285 0.0
-164.231 140.84 0.0
-162.092 140.031 0.0
-164.129 140.347 0.0
-165.639 140.128 0.0
-166.748 139.738 0.0
-167.428 139.183 0.0
-167.648 138.486 0.0
-167.383 137.7 0.0
-166.612 136.901 0.0
-165.327 136.192 0.0
-163.55 135.686 0.0
-161.345 135.481 0.0
-158.824 135.637 0.0
-156.137 136.15 0.0
-153.448 136.951 0.0
-150.909 137.924 0.0
-148.652 138.922 0.0
-146.814 139.788 0.0
-145.576 140.36 0.0
-145.213 140.512 0.0
-146.014 140.254 0.0
-148.022 139.798 0.0
-150.863 139.43 0.0
-154.013 139.3 0.0
-157.104 139.388 0.0
-160.003 139.637 0.0
-162.092 140.031 0.0
-159.586 139.647 0.0
-161.81 139.709 0.0
-163.455 139.512 0.0
-164.672 139.191 0.0
-165.444 138.752 0.0
-165.741 138.221 0.0
-165.534 137.65 0.0
-164.801 137.124 0.0
-163.544 136.75 0.0
-161.804 136.638 0.0
-159.675 136.87 0.0
-157.301 137.469 0.0
-154.85 138.384 0.0
-152.481 139.506 0.0
-150.321 140.7 0.0
-148.458 141.829 0.0
-146.962 142.768 0.0
-145.91 143.399 0.0
-145.412 143.611 0.0
-145.63 143.324 0.0
-146.73 142.574 0.0
-148.73 141.578 0.0
-151.396 140.65 0.0
-154.363 140.003 0.0
-157.285 139.675 0.0
-159.586 139.647 0.0
-157.146 140.097 0.0
-159.454 139.668 0.0
-161.203 139.257 0.0
-162.508 138.862 0.0
-163.355 138.455 0.0
-163.712 138.042 0.0
-163.548 137.671 0.0
-162.849 137.426 0.0
-161.631 137.412 0.0
-159.965 137.726 0.0
-157.978 138.414 0.0
-155.839 139.448 0.0
-153.717 140.725 0.0
-151.746 142.106 0.0
-150.014 143.452 0.0
-148.571 144.647 0.0
-147.449 145.604 0.0
-146.679 146.252 0.0
-146.304 146.523 0.0
-146.388 146.348 0.0
-147.014 145.687 0.0
-148.258 144.585 0.0
-150.12 143.227 0.0
-152.456 141.891 0.0
-155.003 140.806 0.0
-157.146 140.097 0.0
-155.499 141.588 0.0
-157.597 140.527 0.0
-159.249 139.675 0.0
-160.519 139.009 0.0
-161.361 138.485 0.0
-161.724 138.091 0.0
-161.571 137.862 0.0
-160.892 137.874 0.0
-159.728 138.217 0.0
-158.181 138.956 0.0
-156.408 140.082 0.0
-154.587 141.506 0.0
-152.865 143.08 0.0
-151.336 144.65 0.0
-150.047 146.087 0.0
-149.014 147.304 0.0
-148.249 148.245 0.0
-147.766 148.871 0.0
-147.586 149.149 0.0
-147.732 149.042 0.0
-148.229 148.513 0.0
-149.101 147.545 0.0
-150.36 146.187 0.0
-151.979 144.584 0.0
-153.851 142.966 0.0
-155.499 141.588 0.0
-155.099 143.812 0.0
-156.761 142.24 0.0
-158.076 140.881 0.0
-159.11 139.799 0.0
-159.794 138.999 0.0
-160.053 138.488 0.0
-159.839 138.3 0.0
-159.146 138.501 0.0
-158.035 139.156 0.0
-156.64 140.276 0.0
-155.133 141.784 0.0
-153.677 143.527 0.0
-152.382 145.325 0.0
-151.295 147.023 0.0
-150.426 148.513 0.0
-149.769 149.732 0.0
-149.325 150.648 0.0
-149.101 151.241 0.0
-149.113 151.5 0.0
-149.372 151.41 0.0
-149.881 150.952 0.0
-150.63 150.109 0.0
-151.6 148.884 0.0
-152.758 147.326 0.0
-154.049 145.56 0.0
-155.099 143.812 0.0
-155.835 146.19 0.0
-157.075 144.378 0.0
-157.967 142.652 0.0
-158.624 141.161 0.0
-158.997 140.003 0.0
-159.017 139.25 0.0
-158.635 138.979 0.0
-157.855 139.263 0.0
-156.763 140.14 0.0
-155.512 141.56 0.0
-154.274 143.369 0.0
-153.18 145.356 0.0
-152.29 147.319 0.0
-151.607 149.11 0.0
-151.111 150.641 0.0
-150.783 151.867 0.0
-150.617 152.77 0.0
-150.618 153.343 0.0
-150.8 153.583 0.0
-151.172 153.488 0.0
-151.732 153.055 0.0
-152.461 152.28 0.0
-153.322 151.163 0.0
-154.263 149.721 0.0
-155.219 148.012 0.0
-155.835 146.19 0.0
-157.274 148.333 0.0
-158.243 146.479 0.0
-158.803 144.582 0.0
-159.1 142.809 0.0
-159.116 141.316 0.0
-158.812 140.259 0.0
-158.163 139.789 0.0
-157.204 140.028 0.0
-156.054 141.011 0.0
-154.888 142.632 0.0
-153.868 144.663 0.0
-153.081 146.837 0.0
-152.536 148.933 0.0
-152.198 150.81 0.0
-152.021 152.393 0.0
-151.975 153.649 0.0
-152.048 154.566 0.0
-152.244 155.142 0.0
-152.576 155.381 0.0
-153.053 155.287 0.0
-153.674 154.866 0.0
-154.418 154.124 0.0
-155.245 153.07 0.0
-156.095 151.717 0.0
-156.895 150.102 0.0
-157.274 148.333 0.0
-159.047 150.126 0.0
-159.875 148.306 0.0
-160.243 146.363 0.0
-160.295 144.436 0.0
-160.024 142.69 0.0
-159.409 141.327 0.0
-158.455 140.578 0.0
-157.24 140.644 0.0
-155.935 141.604 0.0
-154.754 143.326 0.0
-153.857 145.513 0.0
-153.291 147.842 0.0
-153.017 150.066 0.0
-152.959 152.043 0.0
-153.05 153.703 0.0
-153.247 155.02 0.0
-153.531 155.986 0.0
-153.902 156.599 0.0
-154.373 156.866 0.0
-154.951 156.793 0.0
-155.637 156.391 0.0
-156.411 155.675 0.0
-157.236 154.661 0.0
-158.053 153.367 0.0
-158.784 151.823 0.0
-159.047 150.126 0.0
-160.941 151.576 0.0
-161.702 149.802 0.0
-161.974 147.862 0.0
-161.896 145.861 0.0
-161.453 143.94 0.0
-160.616 142.305 0.0
-159.394 141.229 0.0
-157.892 141.009 0.0
-156.341 141.812 0.0
-155.026 143.532 0.0
-154.134 145.823 0.0
-153.691 148.293 0.0
-153.61 150.654 0.0
-153.774 152.752 0.0
-154.09 154.52 0.0
-154.501 155.932 0.0
-154.978 156.981 0.0
-155.517 157.667 0.0
-156.124 157.994 0.0
-156.806 157.971 0.0
-157.565 157.61 0.0
-158.382 156.932 0.0
-159.224 155.956 0.0
-160.033 154.706 0.0
-160.734 153.214 0.0
-160.941 151.576 0.0
-162.843 152.701 0.0
-163.57 150.972 0.0
-163.8 149.049 0.0
-163.669 147.015 0.0
-163.151 144.978 0.0
-162.2 143.117 0.0
-160.8 141.706 0.0
-159.04 141.107 0.0
-157.188 141.613 0.0
-155.62 143.215 0.0
-154.603 145.552 0.0
-154.174 148.151 0.0
-154.205 150.664 0.0
-154.538 152.907 0.0
-155.045 154.809 0.0
-155.649 156.345 0.0
-156.309 157.509 0.0
-157.013 158.3 0.0
-157.761 158.72 0.0
-158.558 158.777 0.0
-159.402 158.485 0.0
-160.277 157.865 0.0
-161.151 156.94 0.0
-161.971 155.736 0.0
-162.664 154.289 0.0
-162.843 152.701 0.0
-164.682 153.502 0.0
-165.394 151.819 0.0
-165.609 149.92 0.0
-165.466 147.876 0.0
-164.938 145.767 0.0
-163.965 143.734 0.0
-162.496 142.015 0.0
-160.565 140.987 0.0
-158.412 141.063 0.0
-156.491 142.402 0.0
-155.208 144.703 0.0
-154.669 147.414 0.0
-154.728 150.089 0.0
-155.174 152.498 0.0
-155.839 154.555 0.0
-156.618 156.238 0.0
-157.455 157.54 0.0
-158.326 158.462 0.0
-159.224 159.003 0.0
-160.148 159.169 0.0
-161.093 158.974 0.0
-162.043 158.435 0.0
-162.966 157.58 0.0
-163.813 156.435 0.0
-164.514 155.039 0.0
-164.682 153.502 0.0
-166.407 153.965 0.0
-167.115 152.336 0.0
-167.329 150.472 0.0
-167.195 148.435 0.0
-166.692 146.29 0.0
-165.761 144.14 0.0
-164.324 142.173 0.0
-162.343 140.723 0.0
-159.965 140.268 0.0
-157.645 141.176 0.0
-155.954 143.315 0.0
-155.158 146.096 0.0
-155.139 148.941 0.0
-155.635 151.533 0.0
-156.421 153.763 0.0
-157.356 155.605 0.0
-158.361 157.061 0.0
-159.399 158.131 0.0
-160.455 158.813 0.0
-161.519 159.113 0.0
-162.582 159.037 0.0
-163.626 158.605 0.0
-164.618 157.841 0.0
-165.51 156.773 0.0
-166.235 155.441 0.0
-166.407 153.965 0.0
-167.971 154.078 0.0
-168.687 152.516 0.0
-168.91 150.701 0.0
-168.795 148.689 0.0
-168.333 146.536 0.0
-167.475 144.322 0.0
-166.139 142.181 0.0
-164.233 140.374 0.0
-161.776 139.358 0.0
-159.108 139.669 0.0
-156.9 141.463 0.0
-155.676 144.229 0.0
-155.442 147.239 0.0
-155.904 150.035 0.0
-156.763 152.453 0.0
-157.827 154.466 0.0
-158.988 156.083 0.0
-160.191 157.309 0.0
-161.409 158.145 0.0
-162.624 158.593 0.0
-163.82 158.657 0.0
-164.975 158.352 0.0
-166.055 157.7 0.0
-167.011 156.727 0.0
-167.779 155.477 0.0
-167.971 154.078 0.0
-169.334 153.837 0.0
-170.071 152.362 0.0
-170.313 150.613 0.0
-170.225 148.644 0.0
-169.808 146.508 0.0
-169.029 144.272 0.0
-167.821 142.031 0.0
-166.078 139.969 0.0
-163.713 138.451 0.0
-160.864 138.062 0.0
-158.133 139.279 0.0
-156.309 141.868 0.0
-155.681 145.01 0.0
-155.991 148.03 0.0
-156.859 150.661 0.0
-158.017 152.857 0.0
-159.314 154.638 0.0
-160.673 156.023 0.0
-162.051 157.017 0.0
-163.423 157.62 0.0
-164.764 157.836 0.0
-166.047 157.673 0.0
-167.233 157.151 0.0
-168.274 156.293 0.0
-169.103 155.142 0.0
-169.334 153.837 0.0
-170.462 153.263 0.0
-171.234 151.894 0.0
-171.508 150.229 0.0
-171.453 148.324 0.0
-171.082 146.23 0.0
-170.376 144.006 0.0
-169.291 141.725 0.0
-167.737 139.512 0.0