# vtk DataFile Version 2.0
Particulate Flow Equations Solution
ASCII
DATASET STRUCTURED_GRID
DIMENSIONS 26 26 1
POINTS 676 double
-10 -10 0
-9.23077 -10 0
-8.46154 -10 0
-7.69231 -10 0
-6.92308 -10 0
-6.15385 -10 0
-5.38462 -10 0
-4.61538 -10 0
-3.84615 -10 0
-3.07692 -10 0
-2.30769 -10 0
-1.53846 -10 0
-0.769231 -10 0
5.55112e-016 -10 0
0.769231 -10 0
1.53846 -10 0
2.30769 -10 0
3.07692 -10 0
3.84615 -10 0
4.61538 -10 0
5.38462 -10 0
6.15385 -10 0
6.92308 -10 0
7.69231 -10 0
8.46154 -10 0
10 -10 0
-10 -9.23077 0
-9.23077 -9.23077 0
-8.46154 -9.23077 0
-7.69231 -9.23077 0
-6.92308 -9.23077 0
-6.15385 -9.23077 0
-5.38462 -9.23077 0
-4.61538 -9.23077 0
-3.84615 -9.23077 0
-3.07692 -9.23077 0
-2.30769 -9.23077 0
-1.53846 -9.23077 0
-0.769231 -9.23077 0
5.55112e-016 -9.23077 0
0.769231 -9.23077 0
1.53846 -9.23077 0
2.30769 -9.23077 0
3.07692 -9.23077 0
3.84615 -9.23077 0
4.61538 -9.23077 0
5.38462 -9.23077 0
6.15385 -9.23077 0
6.92308 -9.23077 0
7.69231 -9.23077 0
8.46154 -9.23077 0
10 -9.23077 0
-10 -8.46154 0
-9.23077 -8.46154 0
-8.46154 -8.46154 0
-7.69231 -8.46154 0
-6.92308 -8.46154 0
-6.15385 -8.46154 0
-5.38462 -8.46154 0
-4.61538 -8.46154 0
-3.84615 -8.46154 0
-3.07692 -8.46154 0
-2.30769 -8.46154 0
-1.53846 -8.46154 0
-0.769231 -8.46154 0
5.55112e-016 -8.46154 0
0.769231 -8.46154 0
1.53846 -8.46154 0
2.30769 -8.46154 0
3.07692 -8.46154 0
3.84615 -8.46154 0
4.61538 -8.46154 0
5.38462 -8.46154 0
6.15385 -8.46154 0
6.92308 -8.46154 0
7.69231 -8.46154 0
8.46154 -8.46154 0
10 -8.46154 0
-10 -7.69231 0
-9.23077 -7.69231 0
-8.46154 -7.69231 0
-7.69231 -7.69231 0
-6.92308 -7.69231 0
-6.15385 -7.69231 0
-5.38462 -7.69231 0
-4.61538 -7.69231 0
-3.84615 -7.69231 0
-3.07692 -7.69231 0
-2.30769 -7.69231 0
-1.53846 -7.69231 0
-0.769231 -7.69231 0
5.55112e-016 -7.69231 0
0.769231 -7.69231 0
1.53846 -7.69231 0
2.30769 -7.69231 0
3.07692 -7.69231 0
3.84615 -7.69231 0
4.61538 -7.69231 0
5.38462 -7.69231 0
6.15385 -7.69231 0
6.92308 -7.69231 0
7.69231 -7.69231 0
8.46154 -7.69231 0
10 -7.69231 0
-10 -6.92308 0
-9.23077 -6.92308 0
-8.46154 -6.92308 0
-7.69231 -6.92308 0
-6.92308 -6.92308 0
-6.15385 -6.92308 0
-5.38462 -6.92308 0
-4.61538 -6.92308 0
-3.84615 -6.92308 0
-3.07692 -6.92308 0
-2.30769 -6.92308 0
-1.53846 -6.92308 0
-0.769231 -6.92308 0
5.55112e-016 -6.92308 0
0.769231 -6.92308 0
1.53846 -6.92308 0
2.30769 -6.92308 0
3.07692 -6.92308 0
3.84615 -6.92308 0
4.61538 -6.92308 0
5.38462 -6.92308 0
6.15385 -6.92308 0
6.92308 -6.92308 0
7.69231 -6.92308 0
8.46154 -6.92308 0
10 -6.92308 0
-10 -6.15385 0
-9.23077 -6.15385 0
-8.46154 -6.15385 0
-7.69231 -6.15385 0
-6.92308 -6.15385 0
-6.15385 -6.15385 0
-5.38462 -6.15385 0
-4.61538 -6.15385 0
-3.84615 -6.15385 0
-3.07692 -6.15385 0
-2.30769 -6.15385 0
-1.53846 -6.15385 0
-0.769231 -6.15385 0
5.55112e-016 -6.15385 0
0.769231 -6.15385 0
1.53846 -6.15385 0
2.30769 -6.15385 0
3.07692 -6.15385 0
3.84615 -6.15385 0
4.61538 -6.15385 0
5.38462 -6.15385 0
6.15385 -6.15385 0
6.92308 -6.15385 0
7.69231 -6.15385 0
8.46154 -6.15385 0
10 -6.15385 0
-10 -5.38462 0
-9.23077 -5.38462 0
-8.46154 -5.38462 0
-7.69231 -5.38462 0
-6.92308 -5.38462 0
-6.15385 -5.38462 0
-5.38462 -5.38462 0
-4.61538 -5.38462 0
-3.84615 -5.38462 0
-3.07692 -5.38462 0
-2.30769 -5.38462 0
-1.53846 -5.38462 0
-0.769231 -5.38462 0
5.55112e-016 -5.38462 0
0.769231 -5.38462 0
1.53846 -5.38462 0
2.30769 -5.38462 0
3.07692 -5.38462 0
3.84615 -5.38462 0
4.61538 -5.38462 0
5.38462 -5.38462 0
6.15385 -5.38462 0
6.92308 -5.38462 0
7.69231 -5.38462 0
8.46154 -5.38462 0
10 -5.38462 0
-10 -4.61538 0
-9.23077 -4.61538 0
-8.46154 -4.61538 0
-7.69231 -4.61538 0
-6.92308 -4.61538 0
-6.15385 -4.61538 0
-5.38462 -4.61538 0
-4.61538 -4.61538 0
-3.84615 -4.61538 0
-3.07692 -4.61538 0
-2.30769 -4.61538 0
-1.53846 -4.61538 0
-0.769231 -4.61538 0
5.55112e-016 -4.61538 0
0.769231 -4.61538 0
1.53846 -4.61538 0
2.30769 -4.61538 0
3.07692 -4.61538 0
3.84615 -4.61538 0
4.61538 -4.61538 0
5.38462 -4.61538 0
6.15385 -4.61538 0
6.92308 -4.61538 0
7.69231 -4.61538 0
8.46154 -4.61538 0
10 -4.61538 0
-10 -3.84615 0
-9.23077 -3.84615 0
-8.46154 -3.84615 0
-7.69231 -3.84615 0
-6.92308 -3.84615 0
-6.15385 -3.84615 0
-5.38462 -3.84615 0
-4.61538 -3.84615 0
-3.84615 -3.84615 0
-3.07692 -3.84615 0
-2.30769 -3.84615 0
-1.53846 -3.84615 0
-0.769231 -3.84615 0
5.55112e-016 -3.84615 0
0.769231 -3.84615 0
1.53846 -3.84615 0
2.30769 -3.84615 0
3.07692 -3.84615 0
3.84615 -3.84615 0
4.61538 -3.84615 0
5.38462 -3.84615 0
6.15385 -3.84615 0
6.92308 -3.84615 0
7.69231 -3.84615 0
8.46154 -3.84615 0
10 -3.84615 0
-10 -3.07692 0
-9.23077 -3.07692 0
-8.46154 -3.07692 0
-7.69231 -3.07692 0
-6.92308 -3.07692 0
-6.15385 -3.07692 0
-5.38462 -3.07692 0
-4.61538 -3.07692 0
-3.84615 -3.07692 0
-3.07692 -3.07692 0
-2.30769 -3.07692 0
-1.53846 -3.07692 0
-0.769231 -3.07692 0
5.55112e-016 -3.07692 0
0.769231 -3.07692 0
1.53846 -3.07692 0
2.30769 -3.07692 0
3.07692 -3.07692 0
3.84615 -3.07692 0
4.61538 -3.07692 0
5.38462 -3.07692 0
6.15385 -3.07692 0
6.92308 -3.07692 0
7.69231 -3.07692 0
8.46154 -3.07692 0
10 -3.07692 0
-10 -2.30769 0
-9.23077 -2.30769 0
-8.46154 -2.30769 0
-7.69231 -2.30769 0
-6.92308 -2.30769 0
-6.15385 -2.30769 0
-5.38462 -2.30769 0
-4.61538 -2.30769 0
-3.84615 -2.30769 0
-3.07692 -2.30769 0
-2.30769 -2.30769 0
-1.53846 -2.30769 0
-0.769231 -2.30769 0
5.55112e-016 -2.30769 0
0.769231 -2.30769 0
1.53846 -2.30769 0
2.30769 -2.30769 0
3.07692 -2.30769 0
3.84615 -2.30769 0
4.61538 -2.30769 0
5.38462 -2.30769 0
6.15385 -2.30769 0
6.92308 -2.30769 0
7.69231 -2.30769 0
8.46154 -2.30769 0
10 -2.30769 0
-10 -1.53846 0
-9.23077 -1.53846 0
-8.46154 -1.53846 0
-7.69231 -1.53846 0
-6.92308 -1.53846 0
-6.15385 -1.53846 0
-5.38462 -1.53846 0
-4.61538 -1.53846 0
-3.84615 -1.53846 0
-3.07692 -1.53846 0
-2.30769 -1.53846 0
-1.53846 -1.53846 0
-0.769231 -1.53846 0
5.55112e-016 -1.53846 0
0.769231 -1.53846 0
1.53846 -1.53846 0
2.30769 -1.53846 0
3.07692 -1.53846 0
3.84615 -1.53846 0
4.61538 -1.53846 0
5.38462 -1.53846 0
6.15385 -1.53846 0
6.92308 -1.53846 0
7.69231 -1.53846 0
8.46154 -1.53846 0
10 -1.53846 0
-10 -0.769231 0
-9.23077 -0.769231 0
-8.46154 -0.769231 0
-7.69231 -0.769231 0
-6.92308 -0.769231 0
-6.15385 -0.769231 0
-5.38462 -0.769231 0
-4.61538 -0.769231 0
-3.84615 -0.769231 0
-3.07692 -0.769231 0
-2.30769 -0.769231 0
-1.53846 -0.769231 0
-0.769231 -0.769231 0
5.55112e-016 -0.769231 0
0.769231 -0.769231 0
1.53846 -0.769231 0
2.30769 -0.769231 0
3.07692 -0.769231 0
3.84615 -0.769231 0
4.61538 -0.769231 0
5.38462 -0.769231 0
6.15385 -0.769231 0
6.92308 -0.769231 0
7.69231 -0.769231 0
8.46154 -0.769231 0
10 -0.769231 0
-10 5.55112e-016 0
-9.23077 5.55112e-016 0
-8.46154 5.55112e-016 0
-7.69231 5.55112e-016 0
-6.92308 5.55112e-016 0
-6.15385 5.55112e-016 0
-5.38462 5.55112e-016 0
-4.61538 5.55112e-016 0
-3.84615 5.55112e-016 0
-3.07692 5.55112e-016 0
-2.30769 5.55112e-016 0
-1.53846 5.55112e-016 0
-0.769231 5.55112e-016 0
5.55112e-016 5.55112e-016 0
0.769231 5.55112e-016 0
1.53846 5.55112e-016 0
2.30769 5.55112e-016 0
3.07692 5.55112e-016 0
3.84615 5.55112e-016 0
4.61538 5.55112e-016 0
5.38462 5.55112e-016 0
6.15385 5.55112e-016 0
6.92308 5.55112e-016 0
7.69231 5.55112e-016 0
8.46154 5.55112e-016 0
10 5.55112e-016 0
-10 0.769231 0
-9.23077 0.769231 0
-8.46154 0.769231 0
-7.69231 0.769231 0
-6.92308 0.769231 0
-6.15385 0.769231 0
-5.38462 0.769231 0
-4.61538 0.769231 0
-3.84615 0.769231 0
-3.07692 0.769231 0
-2.30769 0.769231 0
-1.53846 0.769231 0
-0.769231 0.769231 0
5.55112e-016 0.769231 0
0.769231 0.769231 0
1.53846 0.769231 0
2.30769 0.769231 0
3.07692 0.769231 0
3.84615 0.769231 0
4.61538 0.769231 0
5.38462 0.769231 0
6.15385 0.769231 0
6.92308 0.769231 0
7.69231 0.769231 0
8.46154 0.769231 0
10 0.769231 0
-10 1.53846 0
-9.23077 1.53846 0
-8.46154 1.53846 0
-7.69231 1.53846 0
-6.92308 1.53846 0
-6.15385 1.53846 0
-5.38462 1.53846 0
-4.61538 1.53846 0
-3.84615 1.53846 0
-3.07692 1.53846 0
-2.30769 1.53846 0
-1.53846 1.53846 0
-0.769231 1.53846 0
5.55112e-016 1.53846 0
0.769231 1.53846 0
1.53846 1.53846 0
2.30769 1.53846 0
3.07692 1.53846 0
3.84615 1.53846 0
4.61538 1.53846 0
5.38462 1.53846 0
6.15385 1.53846 0
6.92308 1.53846 0
7.69231 1.53846 0
8.46154 1.53846 0
10 1.53846 0
-10 2.30769 0
-9.23077 2.30769 0
-8.46154 2.30769 0
-7.69231 2.30769 0
-6.92308 2.30769 0
-6.15385 2.30769 0
-5.38462 2.30769 0
-4.61538 2.30769 0
-3.84615 2.30769 0
-3.07692 2.30769 0
-2.30769 2.30769 0
-1.53846 2.30769 0
-0.769231 2.30769 0
5.55112e-016 2.30769 0
0.769231 2.30769 0
1.53846 2.30769 0
2.30769 2.30769 0
3.07692 2.30769 0
3.84615 2.30769 0
4.61538 2.30769 0
5.38462 2.30769 0
6.15385 2.30769 0
6.92308 2.30769 0
7.69231 2.30769 0
8.46154 2.30769 0
10 2.30769 0
-10 3.07692 0
-9.23077 3.07692 0
-8.46154 3.07692 0
-7.69231 3.07692 0
-6.92308 3.07692 0
-6.15385 3.07692 0
-5.38462 3.07692 0
-4.61538 3.07692 0
-3.84615 3.07692 0
-3.07692 3.07692 0
-2.30769 3.07692 0
-1.53846 3.07692 0
-0.769231 3.07692 0
5.55112e-016 3.07692 0
0.769231 3.07692 0
1.53846 3.07692 0
2.30769 3.07692 0
3.07692 3.07692 0
3.84615 3.07692 0
4.61538 3.07692 0
5.38462 3.07692 0
6.15385 3.07692 0
6.92308 3.07692 0
7.69231 3.07692 0
8.46154 3.07692 0
10 3.07692 0
-10 3.84615 0
-9.23077 3.84615 0
-8.46154 3.84615 0
-7.69231 3.84615 0
-6.92308 3.84615 0
-6.15385 3.84615 0
-5.38462 3.84615 0
-4.61538 3.84615 0
-3.84615 3.84615 0
-3.07692 3.84615 0
-2.30769 3.84615 0
-1.53846 3.84615 0
-0.769231 3.84615 0
5.55112e-016 3.84615 0
0.769231 3.84615 0
1.53846 3.84615 0
2.30769 3.84615 0
3.07692 3.84615 0
3.84615 3.84615 0
4.61538 3.84615 0
5.38462 3.84615 0
6.15385 3.84615 0
6.92308 3.84615 0
7.69231 3.84615 0
8.46154 3.84615 0
10 3.84615 0
-10 4.61538 0
-9.23077 4.61538 0
-8.46154 4.61538 0
-7.69231 4.61538 0
-6.92308 4.61538 0
-6.15385 4.61538 0
-5.38462 4.61538 0
-4.61538 4.61538 0
-3.84615 4.61538 0
-3.07692 4.61538 0
-2.30769 4.61538 0
-1.53846 4.61538 0
-0.769231 4.61538 0
5.55112e-016 4.61538 0
0.769231 4.61538 0
1.53846 4.61538 0
2.30769 4.61538 0
3.07692 4.61538 0
3.84615 4.61538 0
4.61538 4.61538 0
5.38462 4.61538 0
6.15385 4.61538 0
6.92308 4.61538 0
7.69231 4.61538 0
8.46154 4.61538 0
10 4.61538 0
-10 5.38462 0
-9.23077 5.38462 0
-8.46154 5.38462 0
-7.69231 5.38462 0
-6.92308 5.38462 0
-6.15385 5.38462 0
-5.38462 5.38462 0
-4.61538 5.38462 0
-3.84615 5.38462 0
-3.07692 5.38462 0
-2.30769 5.38462 0
-1.53846 5.38462 0
-0.769231 5.38462 0
5.55112e-016 5.38462 0
0.769231 5.38462 0
1.53846 5.38462 0
2.30769 5.38462 0
3.07692 5.38462 0
3.84615 5.38462 0
4.61538 5.38462 0
5.38462 5.38462 0
6.15385 5.38462 0
6.92308 5.38462 0
7.69231 5.38462 0
8.46154 5.38462 0
10 5.38462 0
-10 6.15385 0
-9.23077 6.15385 0
-8.46154 6.15385 0
-7.69231 6.15385 0
-6.92308 6.15385 0
-6.15385 6.15385 0
-5.38462 6.15385 0
-4.61538 6.15385 0
-3.84615 6.15385 0
-3.07692 6.15385 0
-2.30769 6.15385 0
-1.53846 6.15385 0
-0.769231 6.15385 0
5.55112e-016 6.15385 0
0.769231 6.15385 0
1.53846 6.15385 0
2.30769 6.15385 0
3.07692 6.15385 0
3.84615 6.15385 0
4.61538 6.15385 0
5.38462 6.15385 0
6.15385 6.15385 0
6.92308 6.15385 0
7.69231 6.15385 0
8.46154 6.15385 0
10 6.15385 0
-10 6.92308 0
-9.23077 6.92308 0
-8.46154 6.92308 0
-7.69231 6.92308 0
-6.92308 6.92308 0
-6.15385 6.92308 0
-5.38462 6.92308 0
-4.61538 6.92308 0
-3.84615 6.92308 0
-3.07692 6.92308 0
-2.30769 6.92308 0
-1.53846 6.92308 0
-0.769231 6.92308 0
5.55112e-016 6.92308 0
0.769231 6.92308 0
1.53846 6.92308 0
2.30769 6.92308 0
3.07692 6.92308 0
3.84615 6.92308 0
4.61538 6.92308 0
5.38462 6.92308 0
6.15385 6.92308 0
6.92308 6.92308 0
7.69231 6.92308 0
8.46154 6.92308 0
10 6.92308 0
-10 7.69231 0
-9.23077 7.69231 0
-8.46154 7.69231 0
-7.69231 7.69231 0
-6.92308 7.69231 0
-6.15385 7.69231 0
-5.38462 7.69231 0
-4.61538 7.69231 0
-3.84615 7.69231 0
-3.07692 7.69231 0
-2.30769 7.69231 0
-1.53846 7.69231 0
-0.769231 7.69231 0
5.55112e-016 7.69231 0
0.769231 7.69231 0
1.53846 7.69231 0
2.30769 7.69231 0
3.07692 7.69231 0
3.84615 7.69231 0
4.61538 7.69231 0
5.38462 7.69231 0
6.15385 7.69231 0
6.92308 7.69231 0
7.69231 7.69231 0
8.46154 7.69231 0
10 7.69231 0
-10 8.46154 0
-9.23077 8.46154 0
-8.46154 8.46154 0
-7.69231 8.46154 0
-6.92308 8.46154 0
-6.15385 8.46154 0
-5.38462 8.46154 0
-4.61538 8.46154 0
-3.84615 8.46154 0
-3.07692 8.46154 0
-2.30769 8.46154 0
-1.53846 8.46154 0
-0.769231 8.46154 0
5.55112e-016 8.46154 0
0.769231 8.46154 0
1.53846 8.46154 0
2.30769 8.46154 0
3.07692 8.46154 0
3.84615 8.46154 0
4.61538 8.46154 0
5.38462 8.46154 0
6.15385 8.46154 0
6.92308 8.46154 0
7.69231 8.46154 0
8.46154 8.46154 0
10 8.46154 0
-10 10 0
-9.23077 10 0
-8.46154 10 0
-7.69231 10 0
-6.92308 10 0
-6.15385 10 0
-5.38462 10 0
-4.61538 10 0
-3.84615 10 0
-3.07692 10 0
-2.30769 10 0
-1.53846 10 0
-0.769231 10 0
5.55112e-016 10 0
0.769231 10 0
1.53846 10 0
2.30769 10 0
3.07692 10 0
3.84615 10 0
4.61538 10 0
5.38462 10 0
6.15385 10 0
6.92308 10 0
7.69231 10 0
8.46154 10 0
10 10 0

POINT_DATA 676
SCALARS h double 1
LOOkUP_TABLE default
0.0778035
0.0650073
0.0540764
0.0450055
0.0376593
0.0318448
0.027368
0.0240854
0.021954
0.0210899
0.0218464
0.0248836
0.0311469
0.0416116
0.0567337
0.0758127
0.0967041
0.116206
0.131033
0.138888
0.139092
0.13253
0.121087
0.106949
0.0920441
0.0778035
0.0777686
0.0664047
0.0562747
0.047582
0.0403394
0.0344572
0.0297921
0.0262034
0.0235974
0.0219695
0.0214551
0.0223884
0.0253425
0.0310758
0.0402866
0.0531641
0.0689303
0.0857034
0.100893
0.111993
0.117379
0.116717
0.110832
0.101294
0.0897648
0.0777686
0.0758514
0.0666061
0.0578655
0.0500135
0.0432135
0.0375021
0.0328221
0.0290794
0.0261855
0.024092
0.0228264
0.0225322
0.0235107
0.0262338
0.031272
0.0390779
0.049645
0.0622058
0.0752021
0.0866413
0.0947068
0.0983043
0.097315
0.0924354
0.0848546
0.0758514
0.0721796
0.0655855
0.0587756
0.0522415
0.0462689
0.0410108
0.0365118
0.0327535
0.0296921
0.0272875
0.0255308
0.0244724
0.0242539
0.0251335
0.0274793
0.0316929
0.0380327
0.0463744
0.0560317
0.0657891
0.0741912
0.0799804
0.08244
0.0815502
0.0778316
0.0721796
0.0672275
0.0635064
0.0590339
0.0542677
0.0495321
0.045055
0.0409717
0.0373515
0.0342216
0.0315881
0.0294543
0.0278431
0.0268196
0.0265154
0.0271418
0.0289729
0.0322746
0.0371721
0.0434953
0.0506839
0.0578457
0.0639673
0.0682041
0.0700934
0.0696336
0.0672275
0.0616397
0.060702
0.0587703
0.0561362
0.0530468
0.0497226
0.0463443
0.0430562
0.0399685
0.0371601
0.0346856
0.0325872
0.0309122
0.0297341
0.0291708
0.0293903
0.030591
0.0329431
0.0364972
0.0410918
0.0463109
0.0515398
0.0561058
0.0594614
0.0613035
0.0616397
0.0560805
0.0575582
0.0581515
0.057893
0.0568346
0.0550783
0.0527677
0.0500761
0.047186
0.0442655
0.0414521
0.0388488
0.0365321
0.0345693
0.0330383
0.0320437
0.0317194
0.0322101
0.0336291
0.0359993
0.0392035
0.0429692
0.0469109
0.0506164
0.0537404
0.0560805
0.0510486
0.0543944
0.0572956
0.0595141
0.0608244
0.0610931
0.0603094
0.0585891
0.056143
0.0532247
0.05008
0.0469131
0.0438758
0.0410763
0.0385982
0.0365228
0.0349443
0.0339731
0.0337217
0.0342782
0.0356726
0.037854
0.0406873
0.0439781
0.0475026
0.0510486
0.0467971
0.0513765
0.0561992
0.0608357
0.0647722
0.0675488
0.0688659
0.0686501
0.0670483
0.0643613
0.0609522
0.0571658
0.0532813
0.0494997
0.0459576
0.0427522
0.0399673
0.0376899
0.0360161
0.0350442
0.0348615
0.0355306
0.0370815
0.0395114
0.0427787
0.0467971
0.0433647
0.0485175
0.0547289
0.0615316
0.0682063
0.073944
0.0780369
0.0800553
0.0799279
0.0779054
0.0744402
0.0700457
0.0651866
0.0602226
0.0554018
0.0508845
0.0467768
0.0431624
0.0401226
0.0377459
0.0361298
0.0353795
0.0356087
0.0369403
0.0394951
0.0433647
0.040686
0.0457598
0.0526952
0.0611748
0.0704508
0.0794516
0.0870121
0.0921784
0.0944457
0.0938317
0.0907784
0.0859575
0.0800722
0.0737218
0.0673465
0.0612343
0.05556
0.0504313
0.0459264
0.0421192
0.0390946
0.0369585
0.0358485
0.0359452
0.0374739
0.040686
0.0387051
0.0430875
0.0499853
0.0593925
0.0707684
0.0829957
0.0945398
0.103829
0.109688
0.111624
0.109854
0.10511
0.0983489
0.0904943
0.0822842
0.0742294
0.0666433
0.0597019
0.0535028
0.0481106
0.0435879
0.040017
0.0375194
0.0362784
0.0365569
0.0387051
0.0374365
0.0406034
0.0466854
0.0560613
0.0686155
0.0834975
0.0990741
0.11324
0.123993
0.13
0.1309
0.127242
0.120147
0.110911
0.100688
0.090343
0.0804368
0.0712873
0.0630535
0.0558088
0.0495944
0.0444562
0.0404745
0.0377943
0.0366576
0.0374365
0.0369601
0.0385275
0.0431188
0.0514466
0.0639229
0.080267
0.0991667
0.118324
0.134979
0.146718
0.152165
0.151247
0.144979
0.134953
0.122825
0.10997
0.0973492
0.0855431
0.0748481
0.0653869
0.0571941
0.0502776
0.0446624
0.0404289
0.0377536
0.0369601
0.0373725
0.0371253
0.039767
0.046186
0.0572479
0.0733896
0.0940394
0.117262
0.139963
0.158699
0.170731
0.174804
0.1713
0.161812
0.148445
0.133203
0.117638
0.102766
0.0891515
0.0770436
0.0665101
0.0575346
0.0500844
0.0441616
0.0398496
0.0373725
0.0387355
0.0366137
0.0371121
0.041099
0.0496682
0.0638715
0.0840868
0.109309
0.136831
0.162688
0.182804
0.194274
0.196156
0.189435
0.176344
0.159486
0.141157
0.123025
0.106111
0.0909259
0.0776515
0.0662866
0.0567553
0.0489806
0.0429415
0.0387355
0.0410478
0.0370975
0.0354891
0.0369157
0.0424281
0.0533797
0.0709619
0.0953862
0.125072
0.156441
0.184682
0.20523
0.215233
0.214245
0.203944
0.187192
0.167013
0.145907
0.125582
0.107015
0.0906388
0.076549
0.064668
0.0548571
0.0469953
0.0410478
0.0442438
0.0385584
0.0350202
0.0340722
0.0365213
0.0436587
0.0570698
0.0780092
0.106398
0.139974
0.174281
0.203795
0.223703
0.231431
0.227169
0.213289
0.19319
0.170195
0.146894
0.124966
0.105299
0.0882277
0.0737545
0.0617242
0.0519387
0.0442438
0.0482085
0.0408863
0.0356412
0.0326645
0.0324403
0.0359462
0.0446888
0.0604286
0.0843776
0.116053
0.152471
0.188415
0.217889
0.236115
0.241005
0.23343
0.216369
0.193601
0.168589
0.143906
0.12113
0.101031
0.0838344
0.0694514
0.0576568
0.0482085
0.0527908
0.0439216
0.0371774
0.0325399
0.0301893
0.030711
0.0352276
0.0454156
0.0631199
0.0893903
0.123266
0.161105
0.197149
0.225251
0.240951
0.242778
0.232238
0.212752
0.188278
0.162261
0.137148
0.114366
0.0945472
0.0778076
0.0639801
0.0527908
0.0578034
0.0474852
0.0394184
0.0334339
0.0294749
0.0277813
0.0290171
0.0344157
0.0457511
0.0648382
0.0924575
0.127161
0.164806
0.199394
0.224967
0.237611
0.236513
0.223685
0.202778
0.177725
0.1518
0.127238
0.105279
0.0864131
0.0706613
0.0578034
0.0630077
0.0513859
0.0421607
0.0350765
0.0299171
0.026671
0.0256206
0.0274887
0.03357
0.045643
0.0653755
0.0932072
0.127265
0.163134
0.194906
0.217113
0.226532
0.222961
0.208738
0.187517
0.163021
0.13823
0.115109
0.0946926
0.0773412
0.0630077
0.0680915
0.0554102
0.0452183
0.0372428
0.0311815
0.0268664
0.02432
0.0238597
0.0262405
0.0327573
0.0450949
0.0646741
0.0915717
0.123612
0.156366
0.184324
0.202725
0.209088
0.203708
0.189048
0.168568
0.14563
0.122839
0.101858
0.0835233
0.0680915
0.0726662
0.0593154
0.0484198
0.0397647
0.0330318
0.027977
0.0244712
0.0225704
0.0226175
0.0253681
0.0320534
0.044176
0.0628447
0.0878019
0.116726
0.145423
0.169013
0.183561
0.187296
0.180858
0.16665
0.147781
0.127158
0.106974
0.0885887
0.0726662
0.0760385
0.0626049
0.0514346
0.0423931
0.0352254
0.0296833
0.0255725
0.0228067
0.0214747
0.0219324
0.0249029
0.0314963
0.042968
0.0600916
0.0823422
0.107415
0.131548
0.150634
0.161589
0.163254
0.156462
0.143405
0.126749
0.108896
0.0916371
0.0760385
0.0778035
0.0650073
0.0540764
0.0450055
0.0376593
0.0318448
0.027368
0.0240854
0.021954
0.0210899
0.0218464
0.0248836
0.0311469
0.0416116
0.0567337
0.0758127
0.0967041
0.116206
0.131033
0.138888
0.139092
0.13253
0.121087
0.106949
0.0920441
0.0778035

VECTORS u double
-184.103 159.79 0.0
-183.365 159.105 0.0
-182.288 158.446 0.0
-180.983 157.865 0.0
-179.501 157.375 0.0
-177.889 156.983 0.0
-176.203 156.691 0.0
-174.508 156.491 0.0
-172.904 156.377 0.0
-171.551 156.368 0.0
-170.703 156.527 0.0
-170.648 156.958 0.0
-171.509 157.719 0.0
-173.102 158.728 0.0
-175.069 159.813 0.0
-177.103 160.81 0.0
-179.025 161.62 0.0
-180.745 162.193 0.0
-182.218 162.515 0.0
-183.418 162.588 0.0
-184.327 162.432 0.0
-184.933 162.079 0.0
-185.227 161.574 0.0
-185.202 160.959 0.0
-184.858 160.349 0.0
-184.103 159.79 0.0
-183.323 160.284 0.0
-182.61 159.894 0.0
-181.599 159.319 0.0
-180.379 158.87 0.0
-178.992 158.53 0.0
-177.489 158.294 0.0
-175.923 158.148 0.0
-174.355 158.069 0.0
-172.859 158.029 0.0
-171.529 157.999 0.0
-170.51 157.968 0.0
-170.005 157.976 0.0
-170.225 158.113 0.0
-171.238 158.475 0.0
-172.866 159.059 0.0
-174.803 159.763 0.0
-176.776 160.454 0.0
-178.62 161.03 0.0
-180.247 161.432 0.0
-181.614 161.638 0.0
-182.696 161.649 0.0
-183.483 161.492 0.0
-183.965 161.205 0.0
-184.191 160.848 0.0
-184.065 160.485 0.0
-183.323 160.284 0.0
-182.638 160.59 0.0
-181.871 160.507 0.0
-180.871 160.145 0.0
-179.718 159.885 0.0
-178.431 159.731 0.0
-177.049 159.672 0.0
-175.624 159.688 0.0
-174.209 159.747 0.0
-172.863 159.813 0.0
-171.651 159.845 0.0
-170.651 159.805 0.0
-169.975 159.674 0.0
-169.771 159.478 0.0
-170.181 159.308 0.0
-171.241 159.281 0.0
-172.807 159.456 0.0
-174.63 159.788 0.0
-176.477 160.179 0.0
-178.194 160.533 0.0
-179.696 160.787 0.0
-180.94 160.917 0.0
-181.907 160.927 0.0
-182.604 160.851 0.0
-183.028 160.721 0.0
-183.205 160.607 0.0
-182.638 160.59 0.0
-181.696 160.816 0.0
-181.012 160.942 0.0
-180.081 160.879 0.0
-179.02 160.87 0.0
-177.853 160.941 0.0
-176.615 161.083 0.0
-175.353 161.27 0.0
-174.114 161.469 0.0
-172.945 161.643 0.0
-171.894 161.753 0.0
-171.008 161.758 0.0
-170.344 161.625 0.0
-169.978 161.337 0.0
-170.008 160.922 0.0
-170.524 160.468 0.0
-171.546 160.101 0.0
-172.971 159.914 0.0
-174.61 159.912 0.0
-176.273 160.032 0.0
-177.823 160.195 0.0
-179.176 160.344 0.0
-180.295 160.455 0.0
-181.156 160.532 0.0
-181.77 160.591 0.0
-182.061 160.658 0.0
-181.696 160.816 0.0
-180.538 160.998 0.0
-180.013 161.333 0.0
-179.223 161.565 0.0
-178.299 161.832 0.0
-177.285 162.149 0.0
-176.221 162.503 0.0
-175.147 162.864 0.0
-174.103 163.198 0.0
-173.128 163.47 0.0
-172.257 163.648 0.0
-171.523 163.701 0.0
-170.957 163.599 0.0
-170.594 163.319 0.0
-170.48 162.854 0.0
-170.671 162.234 0.0
-171.223 161.545 0.0
-172.146 160.909 0.0
-173.377 160.435 0.0
-174.783 160.162 0.0
-176.218 160.064 0.0
-177.565 160.086 0.0
-178.742 160.18 0.0
-179.703 160.319 0.0
-180.409 160.488 0.0
-180.8 160.694 0.0
-180.538 160.998 0.0
-179.34 161.187 0.0
-178.977 161.717 0.0
-178.353 162.222 0.0
-177.6 162.76 0.0
-176.77 163.325 0.0
-175.905 163.89 0.0
-175.039 164.421 0.0
-174.205 164.883 0.0
-173.432 165.245 0.0
-172.748 165.483 0.0
-172.176 165.574 0.0
-171.739 165.5 0.0
-171.453 165.245 0.0
-171.334 164.797 0.0
-171.404 164.16 0.0
-171.691 163.369 0.0
-172.225 162.502 0.0
-173.014 161.673 0.0
-174.021 160.994 0.0
-175.163 160.527 0.0
-176.331 160.276 0.0
-177.427 160.209 0.0
-178.365 160.286 0.0
-179.085 160.473 0.0
-179.501 160.756 0.0
-179.34 161.187 0.0
-178.226 161.4 0.0
-178.004 162.093 0.0
-177.548 162.834 0.0
-176.979 163.622 0.0
-176.351 164.422 0.0
-175.7 165.19 0.0
-175.054 165.884 0.0
-174.435 166.469 0.0
-173.866 166.918 0.0
-173.367 167.211 0.0
-172.958 167.337 0.0
-172.656 167.286 0.0
-172.471 167.053 0.0
-172.408 166.63 0.0
-172.47 166.019 0.0
-172.66 165.231 0.0
-172.985 164.303 0.0
-173.459 163.309 0.0
-174.087 162.353 0.0
-174.85 161.542 0.0
-175.697 160.95 0.0
-176.553 160.606 0.0
-177.33 160.499 0.0
-177.951 160.598 0.0
-178.332 160.885 0.0
-178.226 161.4 0.0
-177.327 161.621 0.0
-177.196 162.425 0.0
-176.881 163.355 0.0
-176.489 164.358 0.0
-176.062 165.372 0.0
-175.627 166.331 0.0
-175.2 167.184 0.0
-174.794 167.893 0.0
-174.424 168.433 0.0
-174.106 168.789 0.0
-173.855 168.956 0.0
-173.686 168.932 0.0
-173.607 168.719 0.0
-173.622 168.318 0.0
-173.723 167.733 0.0
-173.903 166.972 0.0
-174.149 166.053 0.0
-174.456 165.016 0.0
-174.826 163.93 0.0
-175.26 162.889 0.0
-175.751 161.998 0.0
-176.271 161.34 0.0
-176.769 160.963 0.0
-177.183 160.878 0.0
-177.441 161.085 0.0
-177.327 161.621 0.0
-176.738 161.803 0.0
-176.627 162.651 0.0
-176.402 163.712 0.0
-176.155 164.893 0.0
-175.911 166.097 0.0
-175.679 167.237 0.0
-175.462 168.25 0.0
-175.261 169.092 0.0
-175.084 169.737 0.0
-174.94 170.173 0.0
-174.843 170.396 0.0
-174.804 170.411 0.0
-174.832 170.225 0.0
-174.928 169.845 0.0
-175.086 169.28 0.0
-175.289 168.541 0.0
-175.52 167.642 0.0
-175.757 166.605 0.0
-175.986 165.474 0.0
-176.201 164.313 0.0
-176.403 163.215 0.0
-176.594 162.283 0.0
-176.763 161.616 0.0
-176.893 161.281 0.0
-176.945 161.325 0.0
-176.738 161.803 0.0
-176.507 161.892 0.0
-176.329 162.705 0.0
-176.125 163.834 0.0
-175.972 165.15 0.0
-175.877 166.523 0.0
-175.826 167.839 0.0
-175.804 169.018 0.0
-175.8 170.008 0.0
-175.809 170.779 0.0
-175.835 171.317 0.0
-175.888 171.621 0.0
-175.978 171.695 0.0
-176.112 171.549 0.0
-176.292 171.197 0.0
-176.509 170.651 0.0
-176.749 169.927 0.0
-176.988 169.039 0.0
-177.2 168.007 0.0
-177.361 166.859 0.0
-177.451 165.639 0.0
-177.463 164.415 0.0
-177.4 163.282 0.0
-177.273 162.354 0.0
-177.1 161.744 0.0
-176.888 161.557 0.0
-176.507 161.892 0.0
-176.634 161.857 0.0
-176.305 162.547 0.0
-176.039 163.67 0.0
-175.914 165.075 0.0
-175.921 166.593 0.0
-176.021 168.081 0.0
-176.177 169.436 0.0
-176.358 170.592 0.0
-176.548 171.513 0.0
-176.744 172.181 0.0
-176.949 172.591 0.0
-177.169 172.749 0.0
-177.41 172.664 0.0
-177.674 172.353 0.0
-177.953 171.831 0.0
-178.232 171.119 0.0
-178.488 170.236 0.0
-178.694 169.202 0.0
-178.822 168.041 0.0
-178.846 166.786 0.0
-178.747 165.487 0.0
-178.52 164.217 0.0
-178.174 163.08 0.0
-177.738 162.206 0.0
-177.25 161.745 0.0
-176.634 161.857 0.0
-177.089 161.706 0.0
-176.541 162.179 0.0
-176.125 163.207 0.0
-175.949 164.641 0.0
-175.997 166.277 0.0
-176.21 167.93 0.0
-176.521 169.468 0.0
-176.877 170.807 0.0
-177.245 171.9 0.0
-177.611 172.724 0.0
-177.971 173.269 0.0
-178.326 173.536 0.0
-178.68 173.536 0.0
-179.032 173.283 0.0
-179.375 172.799 0.0
-179.696 172.105 0.0
-179.973 171.226 0.0
-180.182 170.186 0.0
-180.294 169.011 0.0
-180.282 167.73 0.0
-180.125 166.381 0.0
-179.805 165.019 0.0
-179.322 163.728 0.0
-178.693 162.626 0.0
-177.964 161.881 0.0
-177.089 161.706 0.0
-177.829 161.477 0.0
-177.026 161.647 0.0
-176.378 162.477 0.0
-176.057 163.858 0.0
-176.071 165.565 0.0
-176.344 167.368 0.0
-176.78 169.091 0.0
-177.296 170.625 0.0
-177.839 171.91 0.0
-178.377 172.912 0.0
-178.897 173.616 0.0
-179.394 174.019 0.0
-179.868 174.128 0.0
-180.315 173.957 0.0
-180.73 173.527 0.0
-181.098 172.865 0.0
-181.402 171.997 0.0
-181.619 170.955 0.0
-181.726 169.768 0.0
-181.697 168.465 0.0
-181.51 167.081 0.0
-181.145 165.659 0.0
-180.589 164.26 0.0
-179.846 162.98 0.0
-178.94 161.973 0.0
-177.829 161.477 0.0
-178.794 161.223 0.0
-177.746 161.031 0.0
-176.812 161.552 0.0
-176.25 162.77 0.0
-176.131 164.478 0.0
-176.393 166.397 0.0
-176.909 168.298 0.0
-177.564 170.033 0.0
-178.271 171.521 0.0
-178.981 172.717 0.0
-179.666 173.6 0.0
-180.314 174.163 0.0
-180.917 174.406 0.0
-181.471 174.341 0.0
-181.967 173.989 0.0
-182.392 173.376 0.0
-182.732 172.536 0.0
-182.968 171.502 0.0
-183.078 170.311 0.0
-183.044 168.994 0.0
-182.846 167.587 0.0
-182.464 166.125 0.0
-181.881 164.656 0.0
-181.086 163.248 0.0
-180.08 162.028 0.0
-178.794 161.223 0.0
-179.903 160.979 0.0
-178.673 160.419 0.0
-177.448 160.541 0.0
-176.563 161.463 0.0
-176.199 163.061 0.0
-176.351 165.038 0.0
-176.883 167.095 0.0
-177.638 169.028 0.0
-178.493 170.723 0.0
-179.369 172.124 0.0
-180.222 173.202 0.0
-181.027 173.941 0.0
-181.771 174.34 0.0
-182.443 174.406 0.0
-183.034 174.157 0.0
-183.532 173.62 0.0
-183.922 172.828 0.0
-184.189 171.822 0.0
-184.316 170.64 0.0
-184.289 169.322 0.0
-184.092 167.903 0.0
-183.71 166.418 0.0
-183.127 164.906 0.0
-182.323 163.418 0.0
-181.284 162.045 0.0
-179.903 160.979 0.0
-181.06 160.758 0.0
-179.738 159.879 0.0
-178.284 159.568 0.0
-177.05 160.066 0.0
-176.332 161.404 0.0
-176.246 163.336 0.0
-176.698 165.502 0.0
-177.496 167.619 0.0
-178.468 169.523 0.0
-179.498 171.133 0.0
-180.516 172.412 0.0
-181.483 173.342 0.0
-182.377 173.915 0.0
-183.181 174.135 0.0
-183.884 174.014 0.0
-184.471 173.579 0.0
-184.929 172.863 0.0
-185.244 171.908 0.0
-185.404 170.757 0.0
-185.398 169.454 0.0
-185.215 168.039 0.0
-184.845 166.547 0.0
-184.276 165.015 0.0
-183.489 163.48 0.0
-182.461 162.011 0.0
-181.06 160.758 0.0
-182.167 160.554 0.0
-180.84 159.443 0.0
-179.264 158.741 0.0
-177.736 158.742 0.0
-176.605 159.651 0.0
-176.147 161.377 0.0
-176.387 163.565 0.0