# vtk DataFile Version 2.0
Particulate Flow Equations Solution
ASCII
DATASET STRUCTURED_GRID
DIMENSIONS 26 26 1
POINTS 676 double
-45 -45 0
-41.5385 -45 0
-38.0769 -45 0
-34.6154 -45 0
-31.1538 -45 0
-27.6923 -45 0
-24.2308 -45 0
-20.7692 -45 0
-17.3077 -45 0
-13.8462 -45 0
-10.3846 -45 0
-6.92308 -45 0
-3.46154 -45 0
1.77636e-015 -45 0
3.46154 -45 0
6.92308 -45 0
10.3846 -45 0
13.8462 -45 0
17.3077 -45 0
20.7692 -45 0
24.2308 -45 0
27.6923 -45 0
31.1538 -45 0
34.6154 -45 0
38.0769 -45 0
45 -45 0
-45 -41.5385 0
-41.5385 -41.5385 0
-38.0769 -41.5385 0
-34.6154 -41.5385 0
-31.1538 -41.5385 0
-27.6923 -41.5385 0
-24.2308 -41.5385 0
-20.7692 -41.5385 0
-17.3077 -41.5385 0
-13.8462 -41.5385 0
-10.3846 -41.5385 0
-6.92308 -41.5385 0
-3.46154 -41.5385 0
1.77636e-015 -41.5385 0
3.46154 -41.5385 0
6.92308 -41.5385 0
10.3846 -41.5385 0
13.8462 -41.5385 0
17.3077 -41.5385 0
20.7692 -41.5385 0
24.2308 -41.5385 0
27.6923 -41.5385 0
31.1538 -41.5385 0
34.6154 -41.5385 0
38.0769 -41.5385 0
45 -41.5385 0
-45 -38.0769 0
-41.5385 -38.0769 0
-38.0769 -38.0769 0
-34.6154 -38.0769 0
-31.1538 -38.0769 0
-27.6923 -38.0769 0
-24.2308 -38.0769 0
-20.7692 -38.0769 0
-17.3077 -38.0769 0
-13.8462 -38.0769 0
-10.3846 -38.0769 0
-6.92308 -38.0769 0
-3.46154 -38.0769 0
1.77636e-015 -38.0769 0
3.46154 -38.0769 0
6.92308 -38.0769 0
10.3846 -38.0769 0
13.8462 -38.0769 0
17.3077 -38.0769 0
20.7692 -38.0769 0
24.2308 -38.0769 0
27.6923 -38.0769 0
31.1538 -38.0769 0
34.6154 -38.0769 0
38.0769 -38.0769 0
45 -38.0769 0
-45 -34.6154 0
-41.5385 -34.6154 0
-38.0769 -34.6154 0
-34.6154 -34.6154 0
-31.1538 -34.6154 0
-27.6923 -34.6154 0
-24.2308 -34.6154 0
-20.7692 -34.6154 0
-17.3077 -34.6154 0
-13.8462 -34.6154 0
-10.3846 -34.6154 0
-6.92308 -34.6154 0
-3.46154 -34.6154 0
1.77636e-015 -34.6154 0
3.46154 -34.6154 0
6.92308 -34.6154 0
10.3846 -34.6154 0
13.8462 -34.6154 0
17.3077 -34.6154 0
20.7692 -34.6154 0
24.2308 -34.6154 0
27.6923 -34.6154 0
31.1538 -34.6154 0
34.6154 -34.6154 0
38.0769 -34.6154 0
45 -34.6154 0
-45 -31.1538 0
-41.5385 -31.1538 0
-38.0769 -31.1538 0
-34.6154 -31.1538 0
-31.1538 -31.1538 0
-27.6923 -31.1538 0
-24.2308 -31.1538 0
-20.7692 -31.1538 0
-17.3077 -31.1538 0
-13.8462 -31.1538 0
-10.3846 -31.1538 0
-6.92308 -31.1538 0
-3.46154 -31.1538 0
1.77636e-015 -31.1538 0
3.46154 -31.1538 0
6.92308 -31.1538 0
10.3846 -31.1538 0
13.8462 -31.1538 0
17.3077 -31.1538 0
20.7692 -31.1538 0
24.2308 -31.1538 0
27.6923 -31.1538 0
31.1538 -31.1538 0
34.6154 -31.1538 0
38.0769 -31.1538 0
45 -31.1538 0
-45 -27.6923 0
-41.5385 -27.6923 0
-38.0769 -27.6923 0
-34.6154 -27.6923 0
-31.1538 -27.6923 0
-27.6923 -27.6923 0
-24.2308 -27.6923 0
-20.7692 -27.6923 0
-17.3077 -27.6923 0
-13.8462 -27.6923 0
-10.3846 -27.6923 0
-6.92308 -27.6923 0
-3.46154 -27.6923 0
1.77636e-015 -27.6923 0
3.46154 -27.6923 0
6.92308 -27.6923 0
10.3846 -27.6923 0
13.8462 -27.6923 0
17.3077 -27.6923 0
20.7692 -27.6923 0
24.2308 -27.6923 0
27.6923 -27.6923 0
31.1538 -27.6923 0
34.6154 -27.6923 0
38.0769 -27.6923 0
45 -27.6923 0
-45 -24.2308 0
-41.5385 -24.2308 0
-38.0769 -24.2308 0
-34.6154 -24.2308 0
-31.1538 -24.2308 0
-27.6923 -24.2308 0
-24.2308 -24.2308 0
-20.7692 -24.2308 0
-17.3077 -24.2308 0
-13.8462 -24.2308 0
-10.3846 -24.2308 0
-6.92308 -24.2308 0
-3.46154 -24.2308 0
1.77636e-015 -24.2308 0
3.46154 -24.2308 0
6.92308 -24.2308 0
10.3846 -24.2308 0
13.8462 -24.2308 0
17.3077 -24.2308 0
20.7692 -24.2308 0
24.2308 -24.2308 0
27.6923 -24.2308 0
31.1538 -24.2308 0
34.6154 -24.2308 0
38.0769 -24.2308 0
45 -24.2308 0
-45 -20.7692 0
-41.5385 -20.7692 0
-38.0769 -20.7692 0
-34.6154 -20.7692 0
-31.1538 -20.7692 0
-27.6923 -20.7692 0
-24.2308 -20.7692 0
-20.7692 -20.7692 0
-17.3077 -20.7692 0
-13.8462 -20.7692 0
-10.3846 -20.7692 0
-6.92308 -20.7692 0
-3.46154 -20.7692 0
1.77636e-015 -20.7692 0
3.46154 -20.7692 0
6.92308 -20.7692 0
10.3846 -20.7692 0
13.8462 -20.7692 0
17.3077 -20.7692 0
20.7692 -20.7692 0
24.2308 -20.7692 0
27.6923 -20.7692 0
31.1538 -20.7692 0
34.6154 -20.7692 0
38.0769 -20.7692 0
45 -20.7692 0
-45 -17.3077 0
-41.5385 -17.3077 0
-38.0769 -17.3077 0
-34.6154 -17.3077 0
-31.1538 -17.3077 0
-27.6923 -17.3077 0
-24.2308 -17.3077 0
-20.7692 -17.3077 0
-17.3077 -17.3077 0
-13.8462 -17.3077 0
-10.3846 -17.3077 0
-6.92308 -17.3077 0
-3.46154 -17.3077 0
1.77636e-015 -17.3077 0
3.46154 -17.3077 0
6.92308 -17.3077 0
10.3846 -17.3077 0
13.8462 -17.3077 0
17.3077 -17.3077 0
20.7692 -17.3077 0
24.2308 -17.3077 0
27.6923 -17.3077 0
31.1538 -17.3077 0
34.6154 -17.3077 0
38.0769 -17.3077 0
45 -17.3077 0
-45 -13.8462 0
-41.5385 -13.8462 0
-38.0769 -13.8462 0
-34.6154 -13.8462 0
-31.1538 -13.8462 0
-27.6923 -13.8462 0
-24.2308 -13.8462 0
-20.7692 -13.8462 0
-17.3077 -13.8462 0
-13.8462 -13.8462 0
-10.3846 -13.8462 0
-6.92308 -13.8462 0
-3.46154 -13.8462 0
1.77636e-015 -13.8462 0
3.46154 -13.8462 0
6.92308 -13.8462 0
10.3846 -13.8462 0
13.8462 -13.8462 0
17.3077 -13.8462 0
20.7692 -13.8462 0
24.2308 -13.8462 0
27.6923 -13.8462 0
31.1538 -13.8462 0
34.6154 -13.8462 0
38.0769 -13.8462 0
45 -13.8462 0
-45 -10.3846 0
-41.5385 -10.3846 0
-38.0769 -10.3846 0
-34.6154 -10.3846 0
-31.1538 -10.3846 0
-27.6923 -10.3846 0
-24.2308 -10.3846 0
-20.7692 -10.3846 0
-17.3077 -10.3846 0
-13.8462 -10.3846 0
-10.3846 -10.3846 0
-6.92308 -10.3846 0
-3.46154 -10.3846 0
1.77636e-015 -10.3846 0
3.46154 -10.3846 0
6.92308 -10.3846 0
10.3846 -10.3846 0
13.8462 -10.3846 0
17.3077 -10.3846 0
20.7692 -10.3846 0
24.2308 -10.3846 0
27.6923 -10.3846 0
31.1538 -10.3846 0
34.6154 -10.3846 0
38.0769 -10.3846 0
45 -10.3846 0
-45 -6.92308 0
-41.5385 -6.92308 0
-38.0769 -6.92308 0
-34.6154 -6.92308 0
-31.1538 -6.92308 0
-27.6923 -6.92308 0
-24.2308 -6.92308 0
-20.7692 -6.92308 0
-17.3077 -6.92308 0
-13.8462 -6.92308 0
-10.3846 -6.92308 0
-6.92308 -6.92308 0
-3.46154 -6.92308 0
1.77636e-015 -6.92308 0
3.46154 -6.92308 0
6.92308 -6.92308 0
10.3846 -6.92308 0
13.8462 -6.92308 0
17.3077 -6.92308 0
20.7692 -6.92308 0
24.2308 -6.92308 0
27.6923 -6.92308 0
31.1538 -6.92308 0
34.6154 -6.92308 0
38.0769 -6.92308 0
45 -6.92308 0
-45 -3.46154 0
-41.5385 -3.46154 0
-38.0769 -3.46154 0
-34.6154 -3.46154 0
-31.1538 -3.46154 0
-27.6923 -3.46154 0
-24.2308 -3.46154 0
-20.7692 -3.46154 0
-17.3077 -3.46154 0
-13.8462 -3.46154 0
-10.3846 -3.46154 0
-6.92308 -3.46154 0
-3.46154 -3.46154 0
1.77636e-015 -3.46154 0
3.46154 -3.46154 0
6.92308 -3.46154 0
10.3846 -3.46154 0
13.8462 -3.46154 0
17.3077 -3.46154 0
20.7692 -3.46154 0
24.2308 -3.46154 0
27.6923 -3.46154 0
31.1538 -3.46154 0
34.6154 -3.46154 0
38.0769 -3.46154 0
45 -3.46154 0
-45 1.77636e-015 0
-41.5385 1.77636e-015 0
-38.0769 1.77636e-015 0
-34.6154 1.77636e-015 0
-31.1538 1.77636e-015 0
-27.6923 1.77636e-015 0
-24.2308 1.77636e-015 0
-20.7692 1.77636e-015 0
-17.3077 1.77636e-015 0
-13.8462 1.77636e-015 0
-10.3846 1.77636e-015 0
-6.92308 1.77636e-015 0
-3.46154 1.77636e-015 0
1.77636e-015 1.77636e-015 0
3.46154 1.77636e-015 0
6.92308 1.77636e-015 0
10.3846 1.77636e-015 0
13.8462 1.77636e-015 0
17.3077 1.77636e-015 0
20.7692 1.77636e-015 0
24.2308 1.77636e-015 0
27.6923 1.77636e-015 0
31.1538 1.77636e-015 0
34.6154 1.77636e-015 0
38.0769 1.77636e-015 0
45 1.77636e-015 0
-45 3.46154 0
-41.5385 3.46154 0
-38.0769 3.46154 0
-34.6154 3.46154 0
-31.1538 3.46154 0
-27.6923 3.46154 0
-24.2308 3.46154 0
-20.7692 3.46154 0
-17.3077 3.46154 0
-13.8462 3.46154 0
-10.3846 3.46154 0
-6.92308 3.46154 0
-3.46154 3.46154 0
1.77636e-015 3.46154 0
3.46154 3.46154 0
6.92308 3.46154 0
10.3846 3.46154 0
13.8462 3.46154 0
17.3077 3.46154 0
20.7692 3.46154 0
24.2308 3.46154 0
27.6923 3.46154 0
31.1538 3.46154 0
34.6154 3.46154 0
38.0769 3.46154 0
45 3.46154 0
-45 6.92308 0
-41.5385 6.92308 0
-38.0769 6.92308 0
-34.6154 6.92308 0
-31.1538 6.92308 0
-27.6923 6.92308 0
-24.2308 6.92308 0
-20.7692 6.92308 0
-17.3077 6.92308 0
-13.8462 6.92308 0
-10.3846 6.92308 0
-6.92308 6.92308 0
-3.46154 6.92308 0
1.77636e-015 6.92308 0
3.46154 6.92308 0
6.92308 6.92308 0
10.3846 6.92308 0
13.8462 6.92308 0
17.3077 6.92308 0
20.7692 6.92308 0
24.2308 6.92308 0
27.6923 6.92308 0
31.1538 6.92308 0
34.6154 6.92308 0
38.0769 6.92308 0
45 6.92308 0
-45 10.3846 0
-41.5385 10.3846 0
-38.0769 10.3846 0
-34.6154 10.3846 0
-31.1538 10.3846 0
-27.6923 10.3846 0
-24.2308 10.3846 0
-20.7692 10.3846 0
-17.3077 10.3846 0
-13.8462 10.3846 0
-10.3846 10.3846 0
-6.92308 10.3846 0
-3.46154 10.3846 0
1.77636e-015 10.3846 0
3.46154 10.3846 0
6.92308 10.3846 0
10.3846 10.3846 0
13.8462 10.3846 0
17.3077 10.3846 0
20.7692 10.3846 0
24.2308 10.3846 0
27.6923 10.3846 0
31.1538 10.3846 0
34.6154 10.3846 0
38.0769 10.3846 0
45 10.3846 0
-45 13.8462 0
-41.5385 13.8462 0
-38.0769 13.8462 0
-34.6154 13.8462 0
-31.1538 13.8462 0
-27.6923 13.8462 0
-24.2308 13.8462 0
-20.7692 13.8462 0
-17.3077 13.8462 0
-13.8462 13.8462 0
-10.3846 13.8462 0
-6.92308 13.8462 0
-3.46154 13.8462 0
1.77636e-015 13.8462 0
3.46154 13.8462 0
6.92308 13.8462 0
10.3846 13.8462 0
13.8462 13.8462 0
17.3077 13.8462 0
20.7692 13.8462 0
24.2308 13.8462 0
27.6923 13.8462 0
31.1538 13.8462 0
34.6154 13.8462 0
38.0769 13.8462 0
45 13.8462 0
-45 17.3077 0
-41.5385 17.3077 0
-38.0769 17.3077 0
-34.6154 17.3077 0
-31.1538 17.3077 0
-27.6923 17.3077 0
-24.2308 17.3077 0
-20.7692 17.3077 0
-17.3077 17.3077 0
-13.8462 17.3077 0
-10.3846 17.3077 0
-6.92308 17.3077 0
-3.46154 17.3077 0
1.77636e-015 17.3077 0
3.46154 17.3077 0
6.92308 17.3077 0
10.3846 17.3077 0
13.8462 17.3077 0
17.3077 17.3077 0
20.7692 17.3077 0
24.2308 17.3077 0
27.6923 17.3077 0
31.1538 17.3077 0
34.6154 17.3077 0
38.0769 17.3077 0
45 17.3077 0
-45 20.7692 0
-41.5385 20.7692 0
-38.0769 20.7692 0
-34.6154 20.7692 0
-31.1538 20.7692 0
-27.6923 20.7692 0
-24.2308 20.7692 0
-20.7692 20.7692 0
-17.3077 20.7692 0
-13.8462 20.7692 0
-10.3846 20.7692 0
-6.92308 20.7692 0
-3.46154 20.7692 0
1.77636e-015 20.7692 0
3.46154 20.7692 0
6.92308 20.7692 0
10.3846 20.7692 0
13.8462 20.7692 0
17.3077 20.7692 0
20.7692 20.7692 0
24.2308 20.7692 0
27.6923 20.7692 0
31.1538 20.7692 0
34.6154 20.7692 0
38.0769 20.7692 0
45 20.7692 0
-45 24.2308 0
-41.5385 24.2308 0
-38.0769 24.2308 0
-34.6154 24.2308 0
-31.1538 24.2308 0
-27.6923 24.2308 0
-24.2308 24.2308 0
-20.7692 24.2308 0
-17.3077 24.2308 0
-13.8462 24.2308 0
-10.3846 24.2308 0
-6.92308 24.2308 0
-3.46154 24.2308 0
1.77636e-015 24.2308 0
3.46154 24.2308 0
6.92308 24.2308 0
10.3846 24.2308 0
13.8462 24.2308 0
17.3077 24.2308 0
20.7692 24.2308 0
24.2308 24.2308 0
27.6923 24.2308 0
31.1538 24.2308 0
34.6154 24.2308 0
38.0769 24.2308 0
45 24.2308 0
-45 27.6923 0
-41.5385 27.6923 0
-38.0769 27.6923 0
-34.6154 27.6923 0
-31.1538 27.6923 0
-27.6923 27.6923 0
-24.2308 27.6923 0
-20.7692 27.6923 0
-17.3077 27.6923 0
-13.8462 27.6923 0
-10.3846 27.6923 0
-6.92308 27.6923 0
-3.46154 27.6923 0
1.77636e-015 27.6923 0
3.46154 27.6923 0
6.92308 27.6923 0
10.3846 27.6923 0
13.8462 27.6923 0
17.3077 27.6923 0
20.7692 27.6923 0
24.2308 27.6923 0
27.6923 27.6923 0
31.1538 27.6923 0
34.6154 27.6923 0
38.0769 27.6923 0
45 27.6923 0
-45 31.1538 0
-41.5385 31.1538 0
-38.0769 31.1538 0
-34.6154 31.1538 0
-31.1538 31.1538 0
-27.6923 31.1538 0
-24.2308 31.1538 0
-20.7692 31.1538 0
-17.3077 31.1538 0
-13.8462 31.1538 0
-10.3846 31.1538 0
-6.92308 31.1538 0
-3.46154 31.1538 0
1.77636e-015 31.1538 0
3.46154 31.1538 0
6.92308 31.1538 0
10.3846 31.1538 0
13.8462 31.1538 0
17.3077 31.1538 0
20.7692 31.1538 0
24.2308 31.1538 0
27.6923 31.1538 0
31.1538 31.1538 0
34.6154 31.1538 0
38.0769 31.1538 0
45 31.1538 0
-45 34.6154 0
-41.5385 34.6154 0
-38.0769 34.6154 0
-34.6154 34.6154 0
-31.1538 34.6154 0
-27.6923 34.6154 0
-24.2308 34.6154 0
-20.7692 34.6154 0
-17.3077 34.6154 0
-13.8462 34.6154 0
-10.3846 34.6154 0
-6.92308 34.6154 0
-3.46154 34.6154 0
1.77636e-015 34.6154 0
3.46154 34.6154 0
6.92308 34.6154 0
10.3846 34.6154 0
13.8462 34.6154 0
17.3077 34.6154 0
20.7692 34.6154 0
24.2308 34.6154 0
27.6923 34.6154 0
31.1538 34.6154 0
34.6154 34.6154 0
38.0769 34.6154 0
45 34.6154 0
-45 38.0769 0
-41.5385 38.0769 0
-38.0769 38.0769 0
-34.6154 38.0769 0
-31.1538 38.0769 0
-27.6923 38.0769 0
-24.2308 38.0769 0
-20.7692 38.0769 0
-17.3077 38.0769 0
-13.8462 38.0769 0
-10.3846 38.0769 0
-6.92308 38.0769 0
-3.46154 38.0769 0
1.77636e-015 38.0769 0
3.46154 38.0769 0
6.92308 38.0769 0
10.3846 38.0769 0
13.8462 38.0769 0
17.3077 38.0769 0
20.7692 38.0769 0
24.2308 38.0769 0
27.6923 38.0769 0
31.1538 38.0769 0
34.6154 38.0769 0
38.0769 38.0769 0
45 38.0769 0
-45 45 0
-41.5385 45 0
-38.0769 45 0
-34.6154 45 0
-31.1538 45 0
-27.6923 45 0
-24.2308 45 0
-20.7692 45 0
-17.3077 45 0
-13.8462 45 0
-10.3846 45 0
-6.92308 45 0
-3.46154 45 0
1.77636e-015 45 0
3.46154 45 0
6.92308 45 0
10.3846 45 0
13.8462 45 0
17.3077 45 0
20.7692 45 0
24.2308 45 0
27.6923 45 0
31.1538 45 0
34.6154 45 0
38.0769 45 0
45 45 0

POINT_DATA 676
SCALARS h double 1
LOOkUP_TABLE default
2.07231e-005
3.14685e-005
3.6188e-005
3.5881e-005
3.76356e-005
2.72926e-005
2.33216e-005
4.6882e-005
7.45358e-005
7.13514e-005
1.5404e-005
6.61664e-005
0.000684789
0.00173752
0.000682358
6.90721e-005
1.13331e-005
5.68741e-005
7.85643e-005
6.02177e-005
1.84047e-005
1.41941e-005
4.39273e-005
3.41941e-005
2.28886e-005
2.07231e-005
3.20839e-005
4.87068e-005
5.59978e-005
5.5515e-005
5.82281e-005
4.22099e-005
3.60978e-005
7.26083e-005
0.000115357
0.000110273
2.38102e-005
0.000101968
0.00105557
0.00267837
0.00105185
0.000106453
1.75159e-005
8.78825e-005
0.000121534
9.32451e-005
2.85129e-005
2.19682e-005
6.79616e-005
5.29092e-005
3.54268e-005
3.20839e-005
3.68475e-005
5.59345e-005
6.43003e-005
6.37412e-005
6.68439e-005
4.84288e-005
4.13563e-005
8.34851e-005
0.000132456
0.00012606
2.7165e-005
0.000116964
0.00121045
0.00307137
0.00120622
0.000122098
1.9952e-005
0.000100196
0.000138587
0.000106395
3.2611e-005
2.52007e-005
7.79663e-005
6.07474e-005
4.06802e-005
3.68475e-005
3.65175e-005
5.54335e-005
6.37222e-005
6.31602e-005
6.63053e-005
4.84259e-005
4.15929e-005
9.28248e-005
0.000149128
0.000137811
3.02268e-005
0.000115161
0.00119834
0.00304181
0.00119428
0.000120411
2.21196e-005
0.000108438
0.000150479
0.000115764
3.5537e-005
2.55355e-005
7.80561e-005
6.02376e-005
4.03099e-005
3.65175e-005
3.83942e-005
5.8282e-005
6.69833e-005
6.64535e-005
7.12329e-005
5.64651e-005
4.78253e-005
2.31204e-005
3.3293e-005
8.70129e-005
2.02399e-005
0.000124218
0.00125633
0.00318205
0.00125248
0.000129521
1.39711e-005
7.96352e-005
0.00011211
8.85889e-005
2.26813e-005
4.02973e-005
8.63859e-005
6.29541e-005
4.23902e-005
3.83942e-005
2.69145e-005
4.08463e-005
4.69223e-005
4.68856e-005
5.46974e-005
4.12202e-005
4.68102e-006
0.000191059
0.000285143
1.79633e-005
2.63681e-006
7.24702e-005
0.000868028
0.00223963
0.000855266
5.28612e-005
4.93377e-005
4.21864e-005
1.49791e-005
1.45218e-005
5.31641e-006
1.94191e-005
5.40659e-005
4.42041e-005
2.97715e-005
2.69145e-005
2.62627e-005
3.98889e-005
4.57366e-005
4.69828e-005
5.14788e-005
5.78832e-006
0.000701416
0.00366434
0.00546091
0.00399411
0.00226724
0.001071
0.00176934
0.00356569
0.00181128
0.00110335
0.00219108
0.0039559
0.00515921
0.00334169
0.000644522
7.16022e-006
5.04162e-005
4.47585e-005
2.89535e-005
2.62627e-005
5.93257e-005
9.01402e-005
0.000103103
0.000112292
3.20616e-005
0.000257305
0.00349339
0.0168098
0.0248356
0.0185873
0.0104592
0.00530853
0.00691995
0.0120068
0.00676608
0.00524998
0.010367
0.0186576
0.0242851
0.015701
0.00292784
2.47303e-005
0.000139196
0.000105326
6.5079e-005
5.93257e-005
8.75008e-005
0.000132887
0.000151763
0.00016314
0.000126799
2.33225e-005
0.00462315
0.0231034
0.0339834
0.0253394
0.0142894
0.00716112
0.00917287
0.0161303
0.00894422
0.00711042
0.014236
0.0254216
0.033289
0.0216212
0.00397519
4.11884e-005
0.000220653
0.000157331
9.58326e-005
8.75008e-005
5.63206e-005
8.54717e-005
9.79048e-005
0.000107522
6.47375e-005
1.41853e-005
0.00319867
0.0164208
0.0239482
0.0176968
0.00998852
0.00543082
0.00516093
0.00662953
0.00456329
0.00509364
0.010062
0.0177117
0.0233744
0.0153253
0.0027407
2.4267e-005
0.000140908
0.000100698
6.17078e-005
5.63206e-005
4.12219e-005
6.28486e-005
7.18196e-005
7.74195e-005
6.35983e-005
8.80793e-006
0.00159241
0.00838359
0.0121164
0.00909187
0.005535
0.00183011
0.00102064
0.00127742
0.000844621
0.00162833
0.00633568
0.00923088
0.0120802
0.00794564
0.00138252
1.90785e-005
0.000103424
7.35318e-005
4.54009e-005
4.12219e-005
1.53007e-005
2.13104e-005
2.53024e-005
2.40248e-005
2.21966e-005
2.31065e-006
0.00070579
0.00368221
0.00558894
0.00455963
0.0013563
0.000759409
0.00847138
0.00747922
0.00404669
0.000403921
0.00458049
0.00524698
0.00707642
0.00399749
0.000643721
5.74273e-006
3.06065e-005
2.81058e-005
1.53346e-005
1.53007e-005
2.42077e-006
3.34801e-006
3.96413e-006
3.73187e-006
3.35836e-006
4.23607e-006
7.73572e-005
0.00120055
0.000611165
0.00108739
0.000662143
0.0174288
0.150521
0.340873
0.148123
0.0154147
0.00249494
0.00197521
0.00290971
0.00132427
7.76395e-005
2.3725e-006
4.27945e-006
4.46562e-006
2.36115e-006
2.42077e-006
9.2121e-005
0.000142513
0.000161918
0.000166321
0.000170919
3.76297e-005
0.000732367
0.00444976
0.00714379
0.00330008
0.00784033
0.345173
3.0196
7.22876
3.03161
0.34594
0.000338194
0.00256484
0.00712715
0.00388048
0.000607261
2.54021e-005
0.000209163
0.000151389
0.000103673
9.2121e-005
0.000467257
0.000709449
0.000813574
0.000809762
0.000850651
0.000180084
0.00320773
0.0164534
0.0282634
0.00713726
0.00776268
1.88767
16.8713
40.8405
16.9235
1.89012
0.00679588
0.00867869
0.0249543
0.0145739
0.00268666
0.000139459
0.00099617
0.000768816
0.000517413
0.000467257
0.000674992
0.00102165
0.00117241
0.00116286
0.00122683
0.000300741
0.00353041
0.0169043
0.0278455
0.00576086
0.0335269
3.32523
31.5053
78.1532
31.5971
3.345
0.0554135
0.00653918
0.0255596
0.0155517
0.00296191
0.000270745
0.00144902
0.00111063
0.000745487
0.000674992
0.000166494
0.0002508
0.000287233
0.00028895
0.000277465
0.000118499
0.00236969
0.011534
0.0180633
0.00709192
0.0279398
0.906871
8.82365
23.1826
8.83542
0.894343
0.0305241
0.00671229
0.0169216
0.0107023
0.00200381
0.000100529
0.000364444
0.000275355
0.000184251
0.000166494
5.21991e-005
7.93377e-005
9.07854e-005
9.89946e-005
6.10316e-005
8.12266e-005
0.00235776
0.0115822
0.0170345
0.015703
0.0033121
0.0309049
0.447332
1.39951
0.442262
0.00925223
0.0082303
0.0143074
0.0165846
0.0108211
0.00196307
2.91978e-005
0.000129323
9.32478e-005
5.71353e-005
5.21991e-005
5.05798e-005
7.68915e-005
8.82773e-005
9.88156e-005
1.93179e-005
0.00026434
0.00283417
0.0134359
0.0197203
0.0145862
0.00937297
0.00373873
0.00865115
0.0294427
-0.000504405
0.00404613
0.00815621
0.0144804
0.0192688
0.0124798
0.00226007
2.67984e-005
0.000138311
9.17843e-005
5.53983e-005
5.05798e-005
3.8563e-005
5.86518e-005
6.78096e-005
7.72119e-005
1.64878e-005
0.000345832
0.0018055
0.00801546
0.0117255
0.00878716
0.00486222
0.00253888
0.00209177
0.00168281
0.00189669
0.00258089
0.00486678
0.00881951
0.0114581
0.00740331
0.00133441
2.47095e-005
0.000111918
7.04936e-005
4.22753e-005
3.8563e-005
1.22717e-005
1.86702e-005
2.13529e-005
2.2001e-005
3.10003e-005
4.82397e-006
0.000165525
0.000830185
0.00127141
0.000955151
0.000579963
0.000169429
0.000681674
0.00173752
0.000805826
0.000252894
0.000546543
0.000970711
0.00126557
0.000794199
0.000155652
8.42593e-006
3.29373e-005
2.18167e-005
1.35164e-005
1.22717e-005
1.58162e-005
2.39993e-005
2.76191e-005
2.71204e-005
3.15353e-005
3.63673e-005
6.69292e-006
1.53205e-005
3.02848e-005
3.36223e-005
8.81709e-006
5.41123e-005
0.000499626
0.00127278
0.00050321
5.05719e-005
3.70342e-006
1.49304e-005
3.10534e-005
3.5583e-005
1.57632e-005
2.44744e-005
2.42916e-005
2.47567e-005
1.76062e-005
1.58162e-005
4.44634e-005
6.7498e-005
7.75609e-005
7.71529e-005
8.26131e-005
5.56117e-005
4.58521e-005
0.000101412
0.000172002
0.000171637
3.9294e-005
0.000142705
0.00146657
0.0037225
0.0014677
0.000152205
2.34492e-005
0.000118531
0.000184587
0.00016017
5.18553e-005
2.47987e-005
9.17547e-005
7.31472e-005
4.91121e-005
4.44634e-005
3.35818e-005
5.09915e-005
5.86192e-005
5.81438e-005
6.07319e-005
4.32557e-005
3.81151e-005
7.91356e-005
0.000127153
0.000122341
2.71343e-005
0.00010644
0.00110475
0.00280393
0.00110139
0.000111465
1.92012e-005
9.57407e-005
0.000133285
0.000103561
3.1861e-005
2.16065e-005
7.10416e-005
5.54223e-005
3.70708e-005
3.35818e-005
2.24212e-005
3.40627e-005
3.91689e-005
3.88274e-005
4.07368e-005
2.95979e-005
2.52404e-005
5.05595e-005
8.02556e-005
7.67553e-005
1.65389e-005
7.16367e-005
0.000741087
0.00188029
0.000738406
7.47491e-005
1.21973e-005
6.12644e-005
8.45799e-005
6.4807e-005
1.9846e-005
1.55333e-005
4.75687e-005
3.69964e-005
2.47544e-005
2.24212e-005
2.07231e-005
3.14685e-005
3.6188e-005
3.5881e-005
3.76356e-005
2.72926e-005
2.33216e-005
4.6882e-005
7.45358e-005
7.13514e-005
1.5404e-005
6.61664e-005
0.000684789
0.00173752
0.000682358
6.90721e-005
1.13331e-005
5.68741e-005
7.85643e-005
6.02177e-005
1.84047e-005
1.41941e-005
4.39273e-005
3.41941e-005
2.28886e-005
2.07231e-005

VECTORS u double
2.3466 2.24937 0.0
2.94045 2.24838 0.0
3.42388 2.24786 0.0
3.94014 2.24768 0.0
4.77372 2.24761 0.0
4.8414 2.2472 0.0
7.01485 2.24855 0.0
8.99646 2.24914 0.0
9.32668 2.24772 0.0
8.7011 2.24537 0.0
-15.5704 2.25091 0.0
30.9527 2.23887 0.0
22.617 2.23832 0.0
-0.364352 2.23831 0.0
-23.3417 2.23842 0.0
-32.3217 2.23884 0.0
20.4246 2.24981 0.0
-6.47643 2.24454 0.0
-7.81833 2.24649 0.0
-7.81431 2.24879 0.0
-6.72741 2.25031 0.0
0.882548 2.24888 0.0
-2.85991 2.24766 0.0
-2.439 2.24801 0.0
-2.28088 2.24906 0.0
2.3466 2.24937 0.0
2.34595 2.71491 0.0
2.93922 2.71416 0.0
3.42219 2.71374 0.0
3.93818 2.71357 0.0
4.77152 2.71349 0.0
4.83773 2.71296 0.0
7.0141 2.71426 0.0
8.99222 2.71522 0.0
9.31918 2.71417 0.0
8.6989 2.71181 0.0
-15.5408 2.71397 0.0
30.9457 2.70825 0.0
22.6163 2.70824 0.0
-0.364435 2.70842 0.0
-23.3415 2.70833 0.0
-32.3163 2.70835 0.0
20.4005 2.71292 0.0
-6.47548 2.71104 0.0
-7.81176 2.71325 0.0
-7.81 2.71524 0.0
-6.72657 2.71609 0.0
0.884357 2.71379 0.0
-2.85852 2.71346 0.0
-2.43786 2.71381 0.0
-2.27986 2.71461 0.0
2.34595 2.71491 0.0
2.34567 3.12677 0.0
2.9386 3.12593 0.0
3.4213 3.12546 0.0
3.93713 3.12526 0.0
4.77036 3.1251 0.0
4.83771 3.12413 0.0
7.01213 3.12421 0.0
8.98954 3.12795 0.0
9.31516 3.126 0.0
8.68962 3.1202 0.0
-15.5894 3.11714 0.0
30.9543 3.11944 0.0
22.6169 3.11994 0.0
-0.36406 3.12023 0.0
-23.3416 3.12006 0.0
-32.3221 3.11978 0.0
20.4557 3.11386 0.0
-6.4657 3.11726 0.0
-7.80869 3.12016 0.0
-7.80783 3.12268 0.0
-6.72245 3.12536 0.0
0.876555 3.1255 0.0
-2.85891 3.12471 0.0
-2.43731 3.12554 0.0
-2.27942 3.12642 0.0
2.34567 3.12677 0.0
2.34559 3.56047 0.0
2.93835 3.55953 0.0
3.42093 3.559 0.0
3.9366 3.55871 0.0
4.77019 3.55959 0.0
4.82477 3.56992 0.0
7.00556 3.60425 0.0
9.07341 3.30529 0.0
9.34188 3.2866 0.0
8.8081 3.50927 0.0
-14.4923 3.53702 0.0
30.7679 3.55552 0.0
22.605 3.55332 0.0
-0.364378 3.55336 0.0
-23.3325 3.55332 0.0
-32.1982 3.55526 0.0
19.611 3.60585 0.0
-6.55157 3.60393 0.0
-7.79707 3.60652 0.0
-7.79797 3.6052 0.0
-6.74179 3.57488 0.0
1.00895 3.58468 0.0
-2.84264 3.56872 0.0
-2.43802 3.55881 0.0
-2.27931 3.56007 0.0
2.34559 3.56047 0.0
2.34553 4.26637 0.0
2.93822 4.26529 0.0
3.42065 4.26472 0.0
3.93735 4.26473 0.0
4.76139 4.25407 0.0
4.724 4.11004 0.0
6.66585 3.96936 0.0
9.42006 -2.4599 0.0
9.64663 -3.3979 0.0
6.89127 2.13422 0.0
-20.4472 0.980005 0.0
31.4807 4.18788 0.0
22.6493 4.25456 0.0
-0.373644 4.25831 0.0
-23.3913 4.25554 0.0
-32.7221 4.2084 0.0
24.4495 0.511671 0.0
-5.17572 3.06951 0.0
-7.15511 3.2216 0.0
-7.30509 3.10035 0.0
-5.01806 2.53271 0.0
-0.385461 3.83027 0.0
-2.90529 4.14529 0.0
-2.43365 4.26836 0.0
-2.27927 4.26607 0.0
2.34553 4.26637 0.0
2.34492 4.13456 0.0
2.93768 4.13267 0.0
3.41958 4.13397 0.0
3.94944 4.11917 0.0
4.63565 3.99478 0.0
3.99777 3.22473 0.0
-0.687605 -8.4434 0.0
8.66433 6.41708 0.0
8.8149 6.06239 0.0
-11.5494 -5.73641 0.0
-57.2879 -9.52069 0.0
34.6577 2.79356 0.0
23.1332 4.16391 0.0
0.235797 4.22828 0.0
-22.4891 4.09913 0.0
-30.8894 2.07511 0.0
-2.00444 9.26802 0.0
-6.68138 4.54961 0.0
1.55262 -7.09801 0.0
-3.36217 -7.04155 0.0
-2.70311 -6.93437 0.0
0.801762 0.737093 0.0
-2.74507 2.95692 0.0
-2.43137 4.14526 0.0
-2.27863 4.13767 0.0
2.34492 4.13456 0.0
2.34639 6.30891 0.0
2.93917 6.30877 0.0
3.4195 6.30721 0.0
3.97631 6.32295 0.0
4.12482 6.02907 0.0
-8.96452 2.5142 0.0
8.47856 7.23274 0.0
8.70345 7.23758 0.0
9.29213 7.21845 0.0
10.9625 7.21495 0.0
15.2355 7.20399 0.0
22.4538 7.21945 0.0
22.1687 6.32051 0.0
-2.45667 6.05249 0.0
-26.268 6.41168 0.0
-23.5486 7.22399 0.0
-14.8585 7.21074 0.0
-11.064 7.21721 0.0
-9.34809 7.23334 0.0
-8.77265 7.24607 0.0
-8.4876 7.20661 0.0
7.88868 4.15996 0.0
-2.39507 6.00157 0.0
-2.45407 6.35124 0.0
-2.28051 6.30541 0.0
2.34639 6.30891 0.0
2.34692 7.12291 0.0
2.93958 7.1205 0.0
3.41818 7.11887 0.0
3.89452 7.13095 0.0
-1.97379 7.44319 0.0
7.18804 6.88358 0.0
8.42888 6.95782 0.0
8.69408 7.00541 0.0
9.30139 6.98888 0.0
11.0022 6.96717 0.0
15.1166 6.94582 0.0
23.3724 6.97717 0.0
23.6839 5.69511 0.0
-2.39707 5.0175 0.0
-26.9879 5.83401 0.0
-23.5812 7.00324 0.0
-14.9559 6.94198 0.0
-11.0943 6.96521 0.0
-9.37189 6.98689 0.0
-8.7765 7.00384 0.0
-8.48521 6.95842 0.0
8.15805 7.19635 0.0
-2.07352 7.12822 0.0
-2.47132 7.11971 0.0
-2.28028 7.12182 0.0
2.34692 7.12291 0.0
2.34577 6.23111 0.0
2.93826 6.22693 0.0
3.41535 6.22466 0.0
3.98678 6.22747 0.0
3.40122 5.91508 0.0
-7.71715 2.56797 0.0
8.43589 6.88364 0.0
8.67994 6.99721 0.0
9.29041 6.97711 0.0
10.9864 6.94032 0.0
15.1428 6.89617 0.0
23.18 7.13309 0.0
24.0429 3.84413 0.0
-1.46823 2.02501 0.0
-26.0087 4.09534 0.0
-23.3268 7.11729 0.0
-15.0558 6.88792 0.0
-11.0702 6.93696 0.0
-9.36202 6.97266 0.0
-8.76225 6.99559 0.0
-8.46922 6.89049 0.0
8.09626 4.54571 0.0
-1.98385 6.06676 0.0
-2.47175 6.20834 0.0
-2.27794 6.23082 0.0
2.34577 6.23111 0.0
2.34333 6.57696 0.0
2.93547 6.57194 0.0
3.41578 6.57113 0.0
3.90159 6.53652 0.0
2.65245 5.56004 0.0
-8.25101 -4.19823 0.0
8.41745 7.45049 0.0
8.66212 7.60323 0.0
9.27752 7.57681 0.0
10.9669 7.53211 0.0
15.0785 7.49436 0.0
23.4191 7.18631 0.0
25.0446 0.695876 0.0
-2.62176 -2.96372 0.0
-27.5168 2.1984 0.0
-23.0093 7.67396 0.0
-15.0612 7.37272 0.0
-11.0619 7.52296 0.0
-9.35434 7.56741 0.0
-8.74551 7.59864 0.0
-8.44985 7.45788 0.0
8.1018 4.16911 0.0
-2.02921 6.41304 0.0
-2.46923 6.55955 0.0
-2.27405 6.57514 0.0
2.34333 6.57696 0.0
2.34448 6.04904 0.0
2.93653 5.92356 0.0
3.4173 6.00123 0.0
3.93357 5.82707 0.0
3.39572 3.79334 0.0
-8.06092 -16.691 0.0
8.40031 8.86498 0.0
8.64622 9.02321 0.0
9.26104 8.99136 0.0
11.0263 9.01308 0.0
14.2017 7.52022 0.0
16.1384 -3.58055 0.0
20.2204 -33.1074 0.0
-7.68784 -29.1337 0.0
-26.9316 -24.8893 0.0
-15.9509 -2.09087 0.0
-11.8495 -9.30366 0.0
-11.0023 8.9979 0.0
-9.30673 9.00696 0.0
-8.70456 9.04409 0.0
-8.41853 8.90315 0.0
7.92897 -1.95589 0.0
-1.96021 5.39142 0.0
-2.47066 6.09178 0.0
-2.27744 5.91077 0.0
2.34448 6.04904 0.0
2.34529 -2.58561 0.0
2.93714 -4.32351 0.0
3.41834 -3.2318 0.0
3.94292 -5.79637 0.0
3.28174 -7.28986 0.0
-8.23688 -57.2579 0.0
8.41542 11.0085 0.0
8.63027 11.65 0.0
9.45104 11.4104 0.0
9.38579 9.80502 0.0
-2.92271 -13.5089 0.0
28.523 10.4766 0.0
33.9043 43.0711 0.0
8.67846 42.9679 0.0
-23.677 41.9397 0.0
-2.68385 -45.68 0.0
-5.38144 -143.376 0.0
0.366092 11.0834 0.0
-6.14749 11.9106 0.0
-8.37759 11.9096 0.0
-8.45902 11.095 0.0
8.15183 -20.4521 0.0
-1.67495 -7.89454 0.0
-2.47784 -2.61738 0.0
-2.28062 -4.14736 0.0
2.34529 -2.58561 0.0
2.34396 -39.1817 0.0
3.00663 -39.579 0.0
3.42863 -39.375 0.0
4.13783 -39.7559 0.0
2.28408 -40.1566 0.0
-2.00567 95.5564 0.0
9.67133 -9.96323 0.0
8.56742 15.7113 0.0
17.4053 -5.80944 0.0
-1.79095 -0.788825 0.0
3.9985 -57.6885 0.0
34.1649 44.6727 0.0
24.387 45.9156 0.0
0.281744 46.5102 0.0
-23.8196 45.8903 0.0
-33.1545 39.4713 0.0
-5.67763 -383.786 0.0
4.11298 11.8876 0.0
-5.04624 15.725 0.0
-8.52832 14.3503 0.0
-10.5369 -7.62601 0.0
7.31617 23.6155 0.0
-1.13336 -40.1011 0.0
-2.54255 -38.917 0.0
-2.3211 -39.6219 0.0
2.34396 -39.1817 0.0
2.34447 41.985 0.0
2.93797 41.9386 0.0
3.41915 41.9613 0.0
3.93851 41.8778 0.0
4.74021 42.1429 0.0
1.613 70.2857 0.0
7.81145 24.2603 0.0
7.23818 22.1733 0.0
2.36522 19.8744 0.0
-14.0538 4.82633 0.0
31.7907 21.0237 0.0
33.7255 40.672 0.0
23.7377 41.835 0.0
0.0826931 42.844 0.0
-23.6234 41.8175 0.0
-33.5916 40.0969 0.0
21.835 -1652.27 0.0
11.0545 25.8679 0.0
-4.69642 20.8468 0.0
-7.64628 21.9687 0.0
-7.69793 23.2867 0.0
5.52138 61.3 0.0
-2.71716 42.1305 0.0
-2.43511 41.9865 0.0
-2.2763 41.9791 0.0
2.34447 41.985 0.0
2.34176 28.8008 0.0
2.93422 28.8488 0.0