# vtk DataFile Version 2.0
Particulate Flow Equations Solution
ASCII
DATASET STRUCTURED_GRID
DIMENSIONS 26 26 1
POINTS 676 double
-10 -10 0
-9.23077 -10 0
-8.46154 -10 0
-7.69231 -10 0
-6.92308 -10 0
-6.15385 -10 0
-5.38462 -10 0
-4.61538 -10 0
-3.84615 -10 0
-3.07692 -10 0
-2.30769 -10 0
-1.53846 -10 0
-0.769231 -10 0
5.55112e-016 -10 0
0.769231 -10 0
1.53846 -10 0
2.30769 -10 0
3.07692 -10 0
3.84615 -10 0
4.61538 -10 0
5.38462 -10 0
6.15385 -10 0
6.92308 -10 0
7.69231 -10 0
8.46154 -10 0
10 -10 0
-10 -9.23077 0
-9.23077 -9.23077 0
-8.46154 -9.23077 0
-7.69231 -9.23077 0
-6.92308 -9.23077 0
-6.15385 -9.23077 0
-5.38462 -9.23077 0
-4.61538 -9.23077 0
-3.84615 -9.23077 0
-3.07692 -9.23077 0
-2.30769 -9.23077 0
-1.53846 -9.23077 0
-0.769231 -9.23077 0
5.55112e-016 -9.23077 0
0.769231 -9.23077 0
1.53846 -9.23077 0
2.30769 -9.23077 0
3.07692 -9.23077 0
3.84615 -9.23077 0
4.61538 -9.23077 0
5.38462 -9.23077 0
6.15385 -9.23077 0
6.92308 -9.23077 0
7.69231 -9.23077 0
8.46154 -9.23077 0
10 -9.23077 0
-10 -8.46154 0
-9.23077 -8.46154 0
-8.46154 -8.46154 0
-7.69231 -8.46154 0
-6.92308 -8.46154 0
-6.15385 -8.46154 0
-5.38462 -8.46154 0
-4.61538 -8.46154 0
-3.84615 -8.46154 0
-3.07692 -8.46154 0
-2.30769 -8.46154 0
-1.53846 -8.46154 0
-0.769231 -8.46154 0
5.55112e-016 -8.46154 0
0.769231 -8.46154 0
1.53846 -8.46154 0
2.30769 -8.46154 0
3.07692 -8.46154 0
3.84615 -8.46154 0
4.61538 -8.46154 0
5.38462 -8.46154 0
6.15385 -8.46154 0
6.92308 -8.46154 0
7.69231 -8.46154 0
8.46154 -8.46154 0
10 -8.46154 0
-10 -7.69231 0
-9.23077 -7.69231 0
-8.46154 -7.69231 0
-7.69231 -7.69231 0
-6.92308 -7.69231 0
-6.15385 -7.69231 0
-5.38462 -7.69231 0
-4.61538 -7.69231 0
-3.84615 -7.69231 0
-3.07692 -7.69231 0
-2.30769 -7.69231 0
-1.53846 -7.69231 0
-0.769231 -7.69231 0
5.55112e-016 -7.69231 0
0.769231 -7.69231 0
1.53846 -7.69231 0
2.30769 -7.69231 0
3.07692 -7.69231 0
3.84615 -7.69231 0
4.61538 -7.69231 0
5.38462 -7.69231 0
6.15385 -7.69231 0
6.92308 -7.69231 0
7.69231 -7.69231 0
8.46154 -7.69231 0
10 -7.69231 0
-10 -6.92308 0
-9.23077 -6.92308 0
-8.46154 -6.92308 0
-7.69231 -6.92308 0
-6.92308 -6.92308 0
-6.15385 -6.92308 0
-5.38462 -6.92308 0
-4.61538 -6.92308 0
-3.84615 -6.92308 0
-3.07692 -6.92308 0
-2.30769 -6.92308 0
-1.53846 -6.92308 0
-0.769231 -6.92308 0
5.55112e-016 -6.92308 0
0.769231 -6.92308 0
1.53846 -6.92308 0
2.30769 -6.92308 0
3.07692 -6.92308 0
3.84615 -6.92308 0
4.61538 -6.92308 0
5.38462 -6.92308 0
6.15385 -6.92308 0
6.92308 -6.92308 0
7.69231 -6.92308 0
8.46154 -6.92308 0
10 -6.92308 0
-10 -6.15385 0
-9.23077 -6.15385 0
-8.46154 -6.15385 0
-7.69231 -6.15385 0
-6.92308 -6.15385 0
-6.15385 -6.15385 0
-5.38462 -6.15385 0
-4.61538 -6.15385 0
-3.84615 -6.15385 0
-3.07692 -6.15385 0
-2.30769 -6.15385 0
-1.53846 -6.15385 0
-0.769231 -6.15385 0
5.55112e-016 -6.15385 0
0.769231 -6.15385 0
1.53846 -6.15385 0
2.30769 -6.15385 0
3.07692 -6.15385 0
3.84615 -6.15385 0
4.61538 -6.15385 0
5.38462 -6.15385 0
6.15385 -6.15385 0
6.92308 -6.15385 0
7.69231 -6.15385 0
8.46154 -6.15385 0
10 -6.15385 0
-10 -5.38462 0
-9.23077 -5.38462 0
-8.46154 -5.38462 0
-7.69231 -5.38462 0
-6.92308 -5.38462 0
-6.15385 -5.38462 0
-5.38462 -5.38462 0
-4.61538 -5.38462 0
-3.84615 -5.38462 0
-3.07692 -5.38462 0
-2.30769 -5.38462 0
-1.53846 -5.38462 0
-0.769231 -5.38462 0
5.55112e-016 -5.38462 0
0.769231 -5.38462 0
1.53846 -5.38462 0
2.30769 -5.38462 0
3.07692 -5.38462 0
3.84615 -5.38462 0
4.61538 -5.38462 0
5.38462 -5.38462 0
6.15385 -5.38462 0
6.92308 -5.38462 0
7.69231 -5.38462 0
8.46154 -5.38462 0
10 -5.38462 0
-10 -4.61538 0
-9.23077 -4.61538 0
-8.46154 -4.61538 0
-7.69231 -4.61538 0
-6.92308 -4.61538 0
-6.15385 -4.61538 0
-5.38462 -4.61538 0
-4.61538 -4.61538 0
-3.84615 -4.61538 0
-3.07692 -4.61538 0
-2.30769 -4.61538 0
-1.53846 -4.61538 0
-0.769231 -4.61538 0
5.55112e-016 -4.61538 0
0.769231 -4.61538 0
1.53846 -4.61538 0
2.30769 -4.61538 0
3.07692 -4.61538 0
3.84615 -4.61538 0
4.61538 -4.61538 0
5.38462 -4.61538 0
6.15385 -4.61538 0
6.92308 -4.61538 0
7.69231 -4.61538 0
8.46154 -4.61538 0
10 -4.61538 0
-10 -3.84615 0
-9.23077 -3.84615 0
-8.46154 -3.84615 0
-7.69231 -3.84615 0
-6.92308 -3.84615 0
-6.15385 -3.84615 0
-5.38462 -3.84615 0
-4.61538 -3.84615 0
-3.84615 -3.84615 0
-3.07692 -3.84615 0
-2.30769 -3.84615 0
-1.53846 -3.84615 0
-0.769231 -3.84615 0
5.55112e-016 -3.84615 0
0.769231 -3.84615 0
1.53846 -3.84615 0
2.30769 -3.84615 0
3.07692 -3.84615 0
3.84615 -3.84615 0
4.61538 -3.84615 0
5.38462 -3.84615 0
6.15385 -3.84615 0
6.92308 -3.84615 0
7.69231 -3.84615 0
8.46154 -3.84615 0
10 -3.84615 0
-10 -3.07692 0
-9.23077 -3.07692 0
-8.46154 -3.07692 0
-7.69231 -3.07692 0
-6.92308 -3.07692 0
-6.15385 -3.07692 0
-5.38462 -3.07692 0
-4.61538 -3.07692 0
-3.84615 -3.07692 0
-3.07692 -3.07692 0
-2.30769 -3.07692 0
-1.53846 -3.07692 0
-0.769231 -3.07692 0
5.55112e-016 -3.07692 0
0.769231 -3.07692 0
1.53846 -3.07692 0
2.30769 -3.07692 0
3.07692 -3.07692 0
3.84615 -3.07692 0
4.61538 -3.07692 0
5.38462 -3.07692 0
6.15385 -3.07692 0
6.92308 -3.07692 0
7.69231 -3.07692 0
8.46154 -3.07692 0
10 -3.07692 0
-10 -2.30769 0
-9.23077 -2.30769 0
-8.46154 -2.30769 0
-7.69231 -2.30769 0
-6.92308 -2.30769 0
-6.15385 -2.30769 0
-5.38462 -2.30769 0
-4.61538 -2.30769 0
-3.84615 -2.30769 0
-3.07692 -2.30769 0
-2.30769 -2.30769 0
-1.53846 -2.30769 0
-0.769231 -2.30769 0
5.55112e-016 -2.30769 0
0.769231 -2.30769 0
1.53846 -2.30769 0
2.30769 -2.30769 0
3.07692 -2.30769 0
3.84615 -2.30769 0
4.61538 -2.30769 0
5.38462 -2.30769 0
6.15385 -2.30769 0
6.92308 -2.30769 0
7.69231 -2.30769 0
8.46154 -2.30769 0
10 -2.30769 0
-10 -1.53846 0
-9.23077 -1.53846 0
-8.46154 -1.53846 0
-7.69231 -1.53846 0
-6.92308 -1.53846 0
-6.15385 -1.53846 0
-5.38462 -1.53846 0
-4.61538 -1.53846 0
-3.84615 -1.53846 0
-3.07692 -1.53846 0
-2.30769 -1.53846 0
-1.53846 -1.53846 0
-0.769231 -1.53846 0
5.55112e-016 -1.53846 0
0.769231 -1.53846 0
1.53846 -1.53846 0
2.30769 -1.53846 0
3.07692 -1.53846 0
3.84615 -1.53846 0
4.61538 -1.53846 0
5.38462 -1.53846 0
6.15385 -1.53846 0
6.92308 -1.53846 0
7.69231 -1.53846 0
8.46154 -1.53846 0
10 -1.53846 0
-10 -0.769231 0
-9.23077 -0.769231 0
-8.46154 -0.769231 0
-7.69231 -0.769231 0
-6.92308 -0.769231 0
-6.15385 -0.769231 0
-5.38462 -0.769231 0
-4.61538 -0.769231 0
-3.84615 -0.769231 0
-3.07692 -0.769231 0
-2.30769 -0.769231 0
-1.53846 -0.769231 0
-0.769231 -0.769231 0
5.55112e-016 -0.769231 0
0.769231 -0.769231 0
1.53846 -0.769231 0
2.30769 -0.769231 0
3.07692 -0.769231 0
3.84615 -0.769231 0
4.61538 -0.769231 0
5.38462 -0.769231 0
6.15385 -0.769231 0
6.92308 -0.769231 0
7.69231 -0.769231 0
8.46154 -0.769231 0
10 -0.769231 0
-10 5.55112e-016 0
-9.23077 5.55112e-016 0
-8.46154 5.55112e-016 0
-7.69231 5.55112e-016 0
-6.92308 5.55112e-016 0
-6.15385 5.55112e-016 0
-5.38462 5.55112e-016 0
-4.61538 5.55112e-016 0
-3.84615 5.55112e-016 0
-3.07692 5.55112e-016 0
-2.30769 5.55112e-016 0
-1.53846 5.55112e-016 0
-0.769231 5.55112e-016 0
5.55112e-016 5.55112e-016 0
0.769231 5.55112e-016 0
1.53846 5.55112e-016 0
2.30769 5.55112e-016 0
3.07692 5.55112e-016 0
3.84615 5.55112e-016 0
4.61538 5.55112e-016 0
5.38462 5.55112e-016 0
6.15385 5.55112e-016 0
6.92308 5.55112e-016 0
7.69231 5.55112e-016 0
8.46154 5.55112e-016 0
10 5.55112e-016 0
-10 0.769231 0
-9.23077 0.769231 0
-8.46154 0.769231 0
-7.69231 0.769231 0
-6.92308 0.769231 0
-6.15385 0.769231 0
-5.38462 0.769231 0
-4.61538 0.769231 0
-3.84615 0.769231 0
-3.07692 0.769231 0
-2.30769 0.769231 0
-1.53846 0.769231 0
-0.769231 0.769231 0
5.55112e-016 0.769231 0
0.769231 0.769231 0
1.53846 0.769231 0
2.30769 0.769231 0
3.07692 0.769231 0
3.84615 0.769231 0
4.61538 0.769231 0
5.38462 0.769231 0
6.15385 0.769231 0
6.92308 0.769231 0
7.69231 0.769231 0
8.46154 0.769231 0
10 0.769231 0
-10 1.53846 0
-9.23077 1.53846 0
-8.46154 1.53846 0
-7.69231 1.53846 0
-6.92308 1.53846 0
-6.15385 1.53846 0
-5.38462 1.53846 0
-4.61538 1.53846 0
-3.84615 1.53846 0
-3.07692 1.53846 0
-2.30769 1.53846 0
-1.53846 1.53846 0
-0.769231 1.53846 0
5.55112e-016 1.53846 0
0.769231 1.53846 0
1.53846 1.53846 0
2.30769 1.53846 0
3.07692 1.53846 0
3.84615 1.53846 0
4.61538 1.53846 0
5.38462 1.53846 0
6.15385 1.53846 0
6.92308 1.53846 0
7.69231 1.53846 0
8.46154 1.53846 0
10 1.53846 0
-10 2.30769 0
-9.23077 2.30769 0
-8.46154 2.30769 0
-7.69231 2.30769 0
-6.92308 2.30769 0
-6.15385 2.30769 0
-5.38462 2.30769 0
-4.61538 2.30769 0
-3.84615 2.30769 0
-3.07692 2.30769 0
-2.30769 2.30769 0
-1.53846 2.30769 0
-0.769231 2.30769 0
5.55112e-016 2.30769 0
0.769231 2.30769 0
1.53846 2.30769 0
2.30769 2.30769 0
3.07692 2.30769 0
3.84615 2.30769 0
4.61538 2.30769 0
5.38462 2.30769 0
6.15385 2.30769 0
6.92308 2.30769 0
7.69231 2.30769 0
8.46154 2.30769 0
10 2.30769 0
-10 3.07692 0
-9.23077 3.07692 0
-8.46154 3.07692 0
-7.69231 3.07692 0
-6.92308 3.07692 0
-6.15385 3.07692 0
-5.38462 3.07692 0
-4.61538 3.07692 0
-3.84615 3.07692 0
-3.07692 3.07692 0
-2.30769 3.07692 0
-1.53846 3.07692 0
-0.769231 3.07692 0
5.55112e-016 3.07692 0
0.769231 3.07692 0
1.53846 3.07692 0
2.30769 3.07692 0
3.07692 3.07692 0
3.84615 3.07692 0
4.61538 3.07692 0
5.38462 3.07692 0
6.15385 3.07692 0
6.92308 3.07692 0
7.69231 3.07692 0
8.46154 3.07692 0
10 3.07692 0
-10 3.84615 0
-9.23077 3.84615 0
-8.46154 3.84615 0
-7.69231 3.84615 0
-6.92308 3.84615 0
-6.15385 3.84615 0
-5.38462 3.84615 0
-4.61538 3.84615 0
-3.84615 3.84615 0
-3.07692 3.84615 0
-2.30769 3.84615 0
-1.53846 3.84615 0
-0.769231 3.84615 0
5.55112e-016 3.84615 0
0.769231 3.84615 0
1.53846 3.84615 0
2.30769 3.84615 0
3.07692 3.84615 0
3.84615 3.84615 0
4.61538 3.84615 0
5.38462 3.84615 0
6.15385 3.84615 0
6.92308 3.84615 0
7.69231 3.84615 0
8.46154 3.84615 0
10 3.84615 0
-10 4.61538 0
-9.23077 4.61538 0
-8.46154 4.61538 0
-7.69231 4.61538 0
-6.92308 4.61538 0
-6.15385 4.61538 0
-5.38462 4.61538 0
-4.61538 4.61538 0
-3.84615 4.61538 0
-3.07692 4.61538 0
-2.30769 4.61538 0
-1.53846 4.61538 0
-0.769231 4.61538 0
5.55112e-016 4.61538 0
0.769231 4.61538 0
1.53846 4.61538 0
2.30769 4.61538 0
3.07692 4.61538 0
3.84615 4.61538 0
4.61538 4.61538 0
5.38462 4.61538 0
6.15385 4.61538 0
6.92308 4.61538 0
7.69231 4.61538 0
8.46154 4.61538 0
10 4.61538 0
-10 5.38462 0
-9.23077 5.38462 0
-8.46154 5.38462 0
-7.69231 5.38462 0
-6.92308 5.38462 0
-6.15385 5.38462 0
-5.38462 5.38462 0
-4.61538 5.38462 0
-3.84615 5.38462 0
-3.07692 5.38462 0
-2.30769 5.38462 0
-1.53846 5.38462 0
-0.769231 5.38462 0
5.55112e-016 5.38462 0
0.769231 5.38462 0
1.53846 5.38462 0
2.30769 5.38462 0
3.07692 5.38462 0
3.84615 5.38462 0
4.61538 5.38462 0
5.38462 5.38462 0
6.15385 5.38462 0
6.92308 5.38462 0
7.69231 5.38462 0
8.46154 5.38462 0
10 5.38462 0
-10 6.15385 0
-9.23077 6.15385 0
-8.46154 6.15385 0
-7.69231 6.15385 0
-6.92308 6.15385 0
-6.15385 6.15385 0
-5.38462 6.15385 0
-4.61538 6.15385 0
-3.84615 6.15385 0
-3.07692 6.15385 0
-2.30769 6.15385 0
-1.53846 6.15385 0
-0.769231 6.15385 0
5.55112e-016 6.15385 0
0.769231 6.15385 0
1.53846 6.15385 0
2.30769 6.15385 0
3.07692 6.15385 0
3.84615 6.15385 0
4.61538 6.15385 0
5.38462 6.15385 0
6.15385 6.15385 0
6.92308 6.15385 0
7.69231 6.15385 0
8.46154 6.15385 0
10 6.15385 0
-10 6.92308 0
-9.23077 6.92308 0
-8.46154 6.92308 0
-7.69231 6.92308 0
-6.92308 6.92308 0
-6.15385 6.92308 0
-5.38462 6.92308 0
-4.61538 6.92308 0
-3.84615 6.92308 0
-3.07692 6.92308 0
-2.30769 6.92308 0
-1.53846 6.92308 0
-0.769231 6.92308 0
5.55112e-016 6.92308 0
0.769231 6.92308 0
1.53846 6.92308 0
2.30769 6.92308 0
3.07692 6.92308 0
3.84615 6.92308 0
4.61538 6.92308 0
5.38462 6.92308 0
6.15385 6.92308 0
6.92308 6.92308 0
7.69231 6.92308 0
8.46154 6.92308 0
10 6.92308 0
-10 7.69231 0
-9.23077 7.69231 0
-8.46154 7.69231 0
-7.69231 7.69231 0
-6.92308 7.69231 0
-6.15385 7.69231 0
-5.38462 7.69231 0
-4.61538 7.69231 0
-3.84615 7.69231 0
-3.07692 7.69231 0
-2.30769 7.69231 0
-1.53846 7.69231 0
-0.769231 7.69231 0
5.55112e-016 7.69231 0
0.769231 7.69231 0
1.53846 7.69231 0
2.30769 7.69231 0
3.07692 7.69231 0
3.84615 7.69231 0
4.61538 7.69231 0
5.38462 7.69231 0
6.15385 7.69231 0
6.92308 7.69231 0
7.69231 7.69231 0
8.46154 7.69231 0
10 7.69231 0
-10 8.46154 0
-9.23077 8.46154 0
-8.46154 8.46154 0
-7.69231 8.46154 0
-6.92308 8.46154 0
-6.15385 8.46154 0
-5.38462 8.46154 0
-4.61538 8.46154 0
-3.84615 8.46154 0
-3.07692 8.46154 0
-2.30769 8.46154 0
-1.53846 8.46154 0
-0.769231 8.46154 0
5.55112e-016 8.46154 0
0.769231 8.46154 0
1.53846 8.46154 0
2.30769 8.46154 0
3.07692 8.46154 0
3.84615 8.46154 0
4.61538 8.46154 0
5.38462 8.46154 0
6.15385 8.46154 0
6.92308 8.46154 0
7.69231 8.46154 0
8.46154 8.46154 0
10 8.46154 0
-10 10 0
-9.23077 10 0
-8.46154 10 0
-7.69231 10 0
-6.92308 10 0
-6.15385 10 0
-5.38462 10 0
-4.61538 10 0
-3.84615 10 0
-3.07692 10 0
-2.30769 10 0
-1.53846 10 0
-0.769231 10 0
5.55112e-016 10 0
0.769231 10 0
1.53846 10 0
2.30769 10 0
3.07692 10 0
3.84615 10 0
4.61538 10 0
5.38462 10 0
6.15385 10 0
6.92308 10 0
7.69231 10 0
8.46154 10 0
10 10 0

POINT_DATA 676
SCALARS h double 1
LOOkUP_TABLE default
5.083e-005
6.42961e-005
6.54007e-005
5.41695e-005
3.91817e-005
6.16873e-005
0.000116001
3.03849e-005
0.00219812
0.00936242
0.00620485
0.00219414
0.00361366
0.0157515
0.0444938
0.0798047
0.0730289
0.0371511
0.00365954
0.000339703
8.1604e-005
6.05926e-005
3.64922e-005
4.92357e-005
4.91012e-005
5.083e-005
6.28507e-005
7.94506e-005
8.26178e-005
6.87564e-005
4.98689e-005
7.7255e-005
0.000145504
6.40966e-005
0.00710556
0.0315301
0.0248073
0.00930397
0.00235064
0.00395847
0.0128276
0.0269758
0.0286728
0.0158326
0.00110007
7.57472e-005
0.00015065
7.78321e-005
4.48744e-005
6.1439e-005
6.15594e-005
6.28507e-005
6.37737e-005
7.86377e-005
8.11987e-005
6.82019e-005
4.99825e-005
7.16219e-005
0.000152573
0.00142619
0.0199593
0.0792897
0.0742415
0.0321599
0.00774337
0.00143196
0.00261234
0.0064718
0.00802603
0.00490839
0.000287632
0.000124093
0.000163351
7.99405e-005
4.57973e-005
6.33464e-005
6.41917e-005
6.37737e-005
5.30284e-005
6.51542e-005
6.66385e-005
5.57106e-005
4.30993e-005
8.81011e-005
0.000730306
0.0132549
0.0499311
0.154124
0.171551
0.0849184
0.025547
0.00695195
0.00241337
0.00130953
0.00169676
0.00150798
0.000104408
4.19584e-005
4.15069e-005
5.59043e-005
3.88178e-005
5.31448e-005
5.35933e-005
5.30284e-005
3.82301e-005
4.70341e-005
4.78764e-005
4.05887e-005
2.06873e-005
0.000175129
-0.00122373
0.0374959
0.10118
0.241706
0.319516
0.177022
0.0482797
0.0180011
0.00401375
0.00235085
0.000988281
0.00206154
0.00188
0.00116324
0.000339858
8.11486e-005
1.5961e-005
3.99996e-005
3.8623e-005
3.82301e-005
6.00509e-005
7.47277e-005
7.64627e-005
6.27994e-005
1.02729e-005
0.000338354
-0.00206005
0.0553919
0.150522
0.313032
0.500351
0.328023
0.226292
0.239628
0.0777787
-0.0033916
-0.000301254
-0.000660673
-0.00230315
-0.00280041
8.36838e-005
5.99605e-006
5.43795e-005
4.87917e-005
5.91296e-005
6.00509e-005
8.47851e-005
0.000138443
0.000145967
0.000126552
2.30713e-005
0.0013205
-0.000220477
0.0591339
0.165596
0.321566
0.611729
0.640431
0.60595
0.648563
0.23584
-0.00339094
-0.00055203
0.000298104
0.00157354
0.00431833
0.00756125
0.00516629
0.0019361
0.000314938
6.22027e-005
8.47851e-005
0.00044162
4.5494e-005
7.21973e-005
0.000105099
0.00018499
0.000309931
0.00538581
0.0515827
0.134281
0.216065
0.308063
0.345916
0.53396
0.746247
0.304519
0.00874555
0.00515678
0.00733548
0.0224471
0.0444205
0.0570525
0.043829
0.0198156
0.00536566
0.00117081
0.00044162
0.00667137
0.00258931
0.000816346
7.56093e-005
0.000812732
-0.00239963
0.00401547
0.0337635
0.0851752
0.129475
0.134034
0.108519
0.254419
0.523681
0.250204
0.0420905
0.0186213
0.0249123
0.0686363
0.12365
0.152305
0.122536
0.0708017
0.0339595
0.0153286
0.00667137
0.0411699
0.0148454
0.00392918
0.000664908
0.000578201
-0.00074271
0.0111242
0.0169939
0.0350619
0.0612408
0.0785268
0.0728903
0.0997776
0.255737
0.160795
0.102498
0.0362741
0.0499075
0.12208
0.213836
0.286987
0.260845
0.20132
0.142046
0.0860578
0.0411699
0.0345666
0.0103015
0.00225318
-0.000595513
-0.00521326
-0.0051695
0.172896
0.0411091
0.00843632
0.0027209
0.00823599
0.0253508
0.0316047
0.02695
0.0771165
0.132151
0.0375017
0.0673496
0.150567
0.301858
0.511871
0.439164
0.30012
0.178637
0.0884688
0.0345666
0.0133737
0.00352891
0.00154775
0.00448404
0.00824431
0.0238564
0.219935
0.142827
0.0428326
0.00733134
0.00182914
0.0193223
0.0281392
0.536912
0.0258093
0.0579041
0.0121841
0.0635275
0.136755
0.326901
0.579663
0.31907
0.181832
0.0943386
0.0401048
0.0133737
0.00335052
0.00168242
0.00635202
0.0194627
0.0295979
0.213226
0.595019
0.477042
0.219718
0.0722203
0.000628599
0.113877
1.34533
3.46742
1.34314
0.117632
0.00226155
0.0884807
0.221289
0.481417
0.580439
0.210442
0.0566321
0.0301595
0.0112553
0.00335052
0.00172133
0.00839064
0.0304077
0.0770996
0.131612
0.580346
1.18694
0.854883
0.42581
0.164398
0.0476162
0.377758
4.27897
10.5981
4.2691
0.375631
0.0450952
0.230617
0.469661
0.70196
0.628822
0.226803
0.0220031
0.00657571
0.00173199
0.00172133
0.00605907
0.0266393
0.0816914
0.180267
0.319563
0.659349
0.785045
0.259762
0.135749
0.0695593
0.00284922
0.20418
2.81158
7.50288
2.81101
0.250775
0.09817
0.174288
0.282924
0.357135
0.28242
0.0931783
0.002226
0.00143988
0.000821881
0.00605907
0.0140481
0.0516143
0.131282
0.231373
0.294035
0.300269
0.228042
0.129696
0.105264
0.0619696
0.00325993
0.0372383
0.0814362
0.442942
0.0475031
0.0878093
0.092043
0.0589614
0.0209783
0.00408757
0.00243821
0.000556803
0.000937633
0.000300291
0.0025818
0.0140481
0.0160589
0.0495503
0.106271
0.159593
0.177272
0.16802
0.162772
0.163678
0.135625
0.064024
0.00257198
0.0193495
0.0230016
0.0789183
0.0199525
0.0385615
0.0288288
0.021611
0.0108183
0.00304908
9.20534e-005
0.00017979
0.000648588
0.000710081
0.0035944
0.0160589
0.00882331
0.0243113
0.0479625
0.0713297
0.0925757
0.122274
0.162681
0.176967
0.131909
0.0543465
0.0046479
0.0167024
0.08462
0.172505
0.0730828
0.074937
0.0670717
0.0459425
0.0217936
0.00591009
0.000163756
-0.000171399
0.00151776
0.000545343
0.00218485
0.00882331
0.000205501
0.000441898
0.000992319
0.00531329
0.0301347
0.0699336
0.112472
0.119988
0.0845185
0.037129
0.010852
0.0467999
0.244502
0.424618
0.134646
0.120387
0.134467
0.111671
0.0600805
0.0180988
0.00113577
-0.00165796
0.00165583
3.06301e-005
9.52328e-005
0.000205501
6.81655e-005
8.95941e-005
0.000465022
0.00208602
0.0072808
0.0218882
0.0408515
0.0442128
0.0330435
0.0279759
0.0485727
0.154395
0.512612
0.786446
0.183555
0.137904
0.172942
0.168542
0.104113
0.0351508
0.00293885
-0.00217032
0.00112245
3.76263e-005
0.00013251
6.81655e-005
0.000121211
0.000150229
0.000161512
0.000171601
0.000714082
0.000767738
0.00823999
0.00709598
0.00414355
0.0375582
0.220453
0.235563
0.640359
1.11132
0.619265
0.196265
0.17817
0.181766
0.123729
0.0452497
0.00453579
-0.000725465
0.000528228
2.95465e-005
0.000132806
0.000121211
6.43926e-005
8.13409e-005
8.03294e-005
4.60319e-005
4.78318e-005
0.000255316
0.000444378
-0.000645018
0.00174802
0.0110675
0.0219195
0.0245964
0.240284
0.587798
0.57812
0.252256
0.176702
0.15463
0.102419
0.0375814
0.00381324
8.73651e-005
0.000169939
3.24787e-005
6.15046e-005
6.43926e-005
3.76167e-005
4.79426e-005
4.756e-005
3.99045e-005
2.97273e-005
6.49924e-006
3.62671e-005
0.000306767
0.000959905
0.00180811
0.00239168
0.0226862
0.0475911
0.156458
0.324677
0.271767
0.182713
0.119861
0.0604803
0.0184436
0.00162953
8.74298e-007
3.45478e-005
3.70643e-005
3.56455e-005
3.76167e-005
5.04627e-005
6.32828e-005
6.23787e-005
5.12366e-005
3.68938e-005
6.02212e-005
0.00012536
5.35993e-005
5.7922e-005
0.000375663
0.000456992
0.00832787
0.0317255
0.0982357
0.208167
0.246202
0.175097
0.0924186
0.0277301
0.00537628
0.000190836
5.0739e-005
3.64035e-005
4.85619e-005
4.87767e-005
5.04627e-005
5.04588e-005
6.336e-005
6.2461e-005
5.15365e-005
3.73058e-005
5.94237e-005
0.0001139
8.24302e-005
0.000535945
0.00197796
0.00116883
0.00201892
0.012231
0.0460956
0.111689
0.166457
0.132541
0.0653244
0.0107966
0.0014128
2.73388e-005
6.03295e-005
3.73057e-005
4.91541e-005
4.91127e-005
5.04588e-005
5.083e-005
6.42961e-005
6.54007e-005
5.41695e-005
3.91817e-005
6.16873e-005
0.000116001
3.03849e-005
0.00219812
0.00936242
0.00620485
0.00219414
0.00361366
0.0157515
0.0444938
0.0798047
0.0730289
0.0371511
0.00365954
0.000339703
8.1604e-005
6.05926e-005
3.64922e-005
4.92357e-005
4.91012e-005
5.083e-005

VECTORS u double
4.44609 4.46445 0.0
5.22263 1.34548 0.0
6.71485 1.92696 0.0
7.47127 2.48086 0.0
12.9592 2.8398 0.0
21.7178 3.01908 0.0
14.8944 5.96902 0.0
-26.8907 60.2669 0.0
29.3247 -47.3493 0.0
37.6421 -52.9128 0.0
34.006 -42.6608 0.0
22.1145 -24.3157 0.0
-27.9926 26.6159 0.0
-40.3124 41.1116 0.0
-44.3211 53.5277 0.0
-45.8615 69.1626 0.0
-44.8448 74.5666 0.0
-44.5953 71.5777 0.0
-33.614 44.1212 0.0
-28.8216 28.0097 0.0
-17.7384 25.1951 0.0
-20.3941 6.34528 0.0
-11.6844 6.29849 0.0
-5.38389 6.77997 0.0
-5.10549 7.54485 0.0
4.44609 4.46445 0.0
7.34708 5.18735 0.0
7.72195 2.7729 0.0
8.08645 2.38453 0.0
8.32078 2.64638 0.0
13.4495 2.95344 0.0
22.0781 3.17038 0.0
16.9064 4.45253 0.0
-9.45204 156.756 0.0
33.5943 -50.4894 0.0
40.6155 -57.5175 0.0
35.5618 -44.7381 0.0
32.2416 -35.8942 0.0
16.9807 -14.6355 0.0
-32.6921 33.4926 0.0
-42.2343 50.1509 0.0
-42.9013 63.1355 0.0
-41.4401 68.5297 0.0
-41.213 66.7994 0.0
-26.1216 38.9 0.0
11.2069 -23.7456 0.0
-13.1832 5.74936 0.0
-19.9379 7.14728 0.0
-11.0764 7.29689 0.0
-4.09823 7.62846 0.0
-3.7978 7.90432 0.0
7.34708 5.18735 0.0
6.85017 6.6344 0.0
7.76762 5.354 0.0
8.55208 4.76596 0.0
8.83095 4.69552 0.0
13.8532 4.84642 0.0
22.5431 3.02197 0.0
13.584 1.97788 0.0
28.5184 5.74679 0.0
38.9884 -52.8309 0.0
43.846 -61.3473 0.0
36.5286 -45.4512 0.0
32.5108 -35.5129 0.0
30.4554 -25.4244 0.0
9.98916 -4.41847 0.0
-36.9591 42.7225 0.0
-40.3931 57.2704 0.0
-38.6469 62.6914 0.0
-38.5135 61.6212 0.0
-23.8261 30.4582 0.0
1.32766 -3.16533 0.0
-14.8117 6.67098 0.0
-19.6852 8.40358 0.0
-10.6989 8.31098 0.0
-3.47526 8.372 0.0
-3.3469 8.14648 0.0
6.85017 6.6344 0.0
6.3464 7.36804 0.0
7.43616 6.54591 0.0
8.53126 6.00753 0.0
8.92655 5.81589 0.0
14.5243 5.7553 0.0
22.6352 10.3045 0.0
34.0121 -27.0508 0.0
41.6665 -39.402 0.0
45.4221 -55.6619 0.0
47.1327 -63.4495 0.0
36.7048 -44.3148 0.0
31.8838 -33.2239 0.0
30.1266 -20.1398 0.0
32.6268 -7.63184 0.0
13.5335 12.5985 0.0
-29.7025 46.2309 0.0
-32.6322 56.8591 0.0
-23.491 55.1055 0.0
-47.1985 -2.89149 0.0
-52.8192 -53.1329 0.0
-47.7701 -35.3027 0.0
-19.4471 9.59577 0.0
-10.587 8.83227 0.0
-3.39651 8.64444 0.0
-3.43139 8.31436 0.0
6.3464 7.36804 0.0
6.02822 12.7001 0.0
7.13611 12.2954 0.0
8.38064 11.9686 0.0
9.01754 11.8525 0.0
8.35039 16.9 0.0
32.361 -13.0154 0.0
44.3491 -45.4602 0.0
50.3023 -50.1462 0.0
52.4333 -58.7556 0.0
50.0993 -62.8936 0.0
35.5985 -40.5992 0.0
30.1246 -28.2705 0.0
29.5952 -20.8507 0.0
25.2644 -0.667324 0.0
63.9419 -19.9511 0.0
10.8234 29 0.0
3.84403 56.8372 0.0
20.4748 60.8746 0.0
28.6514 59.8749 0.0
29.4284 57.6756 0.0
16.3388 52.303 0.0
-14.5031 31.1344 0.0
10.791 10.956 0.0
-3.4508 13.3382 0.0
-3.56548 13.218 0.0
6.02822 12.7001 0.0
5.62234 21.6332 0.0
6.95021 21.4978 0.0
8.41838 21.3167 0.0
8.62387 21.5785 0.0
-34.1785 110.347 0.0
40.3588 -19.7063 0.0
44.6554 -24.4824 0.0
59.0886 -54.452 0.0
59.7183 -60.7281 0.0
52.627 -59.7068 0.0
33.2213 -34.6547 0.0
27.0409 -19.2227 0.0
21.4456 13.7327 0.0
3.69665 33.0563 0.0
-11.6322 34.2853 0.0
-14.1121 69.7943 0.0
-17.436 105.311 0.0
54.2485 117.938 0.0
47.6307 85.3728 0.0
43.1513 73.9009 0.0
4.59314 -106.813 0.0
-504.184 -1183.77 0.0
3.89811 14.0464 0.0
-8.21504 19.5725 0.0
-4.82325 22.0312 0.0
5.62234 21.6332 0.0
-3.39907 12.9359 0.0
4.31662 15.2823 0.0
8.14173 15.9604 0.0
7.69278 18.0536 0.0
-26.4851 60.0063 0.0
36.2167 14.8029 0.0
484.087 -1204.09 0.0
66.1588 -54.4524 0.0
66.2978 -60.27 0.0
55.8494 -55.565 0.0
31.925 -29.8801 0.0
24.2183 -8.97334 0.0
21.6725 15.1691 0.0
4.92593 30.8826 0.0
-11.7231 33.8622 0.0
-10.7322 73.3076 0.0
-7.22346 91.9967 0.0
95.1221 115.608 0.0
84.6419 106.147 0.0
63.4818 84.6931 0.0
46.3426 67.8419 0.0
39.1561 60.0096 0.0
33.7172 54.198 0.0
17.7126 42.3347 0.0
-46.4373 11.4768 0.0
-3.39907 12.9359 0.0
36.6233 29.0153 0.0
-50.9848 -12.0895 0.0
-11.0469 -7.7741 0.0
11.1583 -4.31313 0.0
26.4166 26.3698 0.0
33.78 -20.2097 0.0
20.7516 48.0704 0.0
68.9688 -49.1649 0.0
71.5567 -56.8588 0.0
65.5214 -55.0636 0.0
44.8818 -38.3804 0.0
30.5265 -17.8825 0.0
22.2413 13.0548 0.0
4.55209 29.5003 0.0
-12.5153 33.4315 0.0
12.8482 86.8389 0.0
-23.0153 82.7779 0.0
40.9972 90.5254 0.0
58.2492 86.2435 0.0
61.7511 79.5222 0.0
59.9275 71.9672 0.0
55.6042 64.9881 0.0
50.2749 58.8307 0.0
43.7074 52.5641 0.0
38.1781 42.2899 0.0
36.6233 29.0153 0.0
56.6894 32.7878 0.0
54.2938 28.3836 0.0
47.7444 24.5705 0.0
14.0464 71.5081 0.0
46.3876 -12.7776 0.0
57.4219 -26.2797 0.0
27.9995 4.51643 0.0
66.7354 -42.1516 0.0
72.3816 -50.4628 0.0
70.8514 -50.624 0.0
61.9429 -42.7109 0.0
45.9163 -22.5493 0.0
21.4751 15.8987 0.0
3.01305 29.6035 0.0
-13.7584 34.1631 0.0
10.8113 83.1986 0.0
-22.7715 78.0241 0.0
42.1043 84.5747 0.0
59.223 82.8503 0.0
64.6044 77.6445 0.0
64.6341 70.0965 0.0
62.8542 62.6759 0.0
61.1923 55.2899 0.0
59.7985 47.355 0.0
58.3099 39.2708 0.0
56.6894 32.7878 0.0
65.0494 38.4995 0.0
60.5043 35.8217 0.0
55.2815 33.2975 0.0
51.2031 35.2321 0.0
65.1557 -19.28 0.0
165.84 -92.3036 0.0
-9.76975 16.1111 0.0
45.9615 -21.4142 0.0
65.3689 -39.7653 0.0
66.5392 -44.5565 0.0
55.548 -39.5748 0.0
37.8966 -31.0001 0.0
17.51 4.54557 0.0
1.23491 25.8755 0.0
-13.8552 32.3601 0.0
7.84821 66.3134 0.0
-23.7718 61.56 0.0
44.3627 78.1107 0.0
58.5822 78.1117 0.0
62.0889 70.5219 0.0
59.9382 58.7868 0.0
62.2035 52.4704 0.0
66.5691 48.3655 0.0
69.2099 44.8755 0.0
68.367 41.5467 0.0
65.0494 38.4995 0.0
49.7728 33.673 0.0
48.3278 32.4783 0.0
48.687 31.4856 0.0
-32.9875 6.36245 0.0
-5.14669 13.695 0.0
-15.0827 33.0225 0.0
-4.0161 3.98333 0.0
-17.6314 20.944 0.0
-27.4691 37.8512 0.0
-69.7867 37.7714 0.0
10.5919 -37.6179 0.0
7.58592 -30.1731 0.0
1.43004 -12.8694 0.0
1.23075 -9.68133 0.0
-7.91588 16.3322 0.0
0.943363 36.0349 0.0
-25.1689 28.2539 0.0
40.9592 66.475 0.0
49.6939 66.4781 0.0
44.7442 50.3086 0.0
34.3638 34.6018 0.0
36.906 32.7065 0.0
42.8087 33.751 0.0
47.5528 34.5526 0.0
49.7027 34.4508 0.0
49.7728 33.673 0.0
40.0388 30.9878 0.0
36.7427 28.7122 0.0
-0.00239938 7.23497 0.0
-9.68518 10.4235 0.0
-15.8752 12.8289 0.0
18.7621 22.1833 0.0
9.12933 20.7223 0.0
5.65389 26.4447 0.0
4.45073 27.9313 0.0
-7.65257 19.9627 0.0
-5.97037 -42.2993 0.0
2.05744 -14.0788 0.0
-46.6087 12.6397 0.0
-0.0295395 25.8536 0.0
52.26 -0.266916 0.0
-1.00192 0.68522 0.0
-24.9339 -14.1827 0.0
32.3355 52.8327 0.0
31.961 51.3177 0.0
23.0364 34.1809 0.0
11.8705 25.9925 0.0
20.8295 27.0635 0.0
29.7221 29.0823 0.0
35.5632 30.5059 0.0
38.7303 31.0912 0.0
40.0388 30.9878 0.0
29.6778 27.4804 0.0
-7.5256 -9.63976 0.0
-24.5568 -29.7296 0.0
-18.5106 -21.8112 0.0
-25.0942 -22.7111 0.0
24.841 11.9848 0.0
20.1203 15.3471 0.0
18.8883 19.5602 0.0
19.0402 21.2171 0.0
19.1515 20.94 0.0
-1.81019 18.7602 0.0
20.3882 19.2946 0.0
14.6679 22.4417 0.0
-0.100618 23.8981 0.0
-14.8739 22.439 0.0
-20.3337 18.9185 0.0
3.21122 26.2133 0.0
-4.40318 27.2333 0.0
-9.18951 27.4205 0.0
-8.89809 25.9598 0.0
-11.4889 25.1857 0.0
-9.03261 24.3206 0.0
21.3996 28.8129 0.0
27.2913 29.7677 0.0
30.4917 30.1212 0.0
29.6778 27.4804 0.0
-13.7887 -18.034 0.0
-34.3786 -38.6302 0.0
-35.7707 -40.4237 0.0
-33.4621 -39.7189 0.0
-25.5815 -36.5086 0.0
15.8466 -10.1804 0.0
15.9035 -5.9018 0.0
19.7392 1.27734 0.0
21.4315 4.55185 0.0
21.8264 5.21229 0.0
23.1241 6.44969 0.0
20.7318 8.64323 0.0
14.8889 10.5721 0.0
-0.099835 11.8364 0.0
-15.0773 10.5727 0.0
-21.0994 8.56551 0.0
-36.0844 3.3628 0.0
-29.2143 6.43193 0.0
-27.9613 8.69874 0.0
-27.1305 10.7219 0.0
-28.2728 11.5986 0.0
-30.424 10.1988 0.0
-4.60955 20.5551 0.0
-2.05038 17.1017 0.0
20.8868 23.298 0.0
-13.7887 -18.034 0.0
-42.2594 -42.0892 0.0
-46.4913 -44.9814 0.0
-48.193 -46.868 0.0
-46.0894 -47.5234 0.0
-35.5694 -44.6798 0.0
-13.6832 -35.3155 0.0
-7.84696 -30.2495 0.0
3.88134 -16.5649 0.0
6.85873 -17.9359 0.0
-2.42315 -23.9246 0.0
-14.3498 -11.101 0.0
19.5248 -6.23324 0.0
14.1809 -6.25932 0.0
-0.0990998 -5.15982 0.0
-14.4229 -6.27514 0.0
-21.4502 -7.47619 0.0
-36.5332 -13.1246 0.0
-37.1739 -12.2011 0.0
-34.4973 -10.4492 0.0
-33.0476 -8.54354 0.0
-33.2164 -7.35926 0.0
-34.0347 -7.66448 0.0
20.9458 74.2671 0.0
-21.2764 0.0376591 0.0
-23.6809 -29.8959 0.0
-42.2594 -42.0892 0.0
-54.3352 -44.1657 0.0
-59.9395 -47.5347 0.0
-65.2361 -51.3144 0.0
-68.6841 -55.0497 0.0
-67.1429 -57.3369 0.0
-56.702 -55.716 0.0