# vtk DataFile Version 2.0
Particulate Flow Equations Solution
ASCII
DATASET STRUCTURED_GRID
DIMENSIONS 26 26 1
POINTS 676 double
-10 -10 0
-9.23077 -10 0
-8.46154 -10 0
-7.69231 -10 0
-6.92308 -10 0
-6.15385 -10 0
-5.38462 -10 0
-4.61538 -10 0
-3.84615 -10 0
-3.07692 -10 0
-2.30769 -10 0
-1.53846 -10 0
-0.769231 -10 0
5.55112e-016 -10 0
0.769231 -10 0
1.53846 -10 0
2.30769 -10 0
3.07692 -10 0
3.84615 -10 0
4.61538 -10 0
5.38462 -10 0
6.15385 -10 0
6.92308 -10 0
7.69231 -10 0
8.46154 -10 0
10 -10 0
-10 -9.23077 0
-9.23077 -9.23077 0
-8.46154 -9.23077 0
-7.69231 -9.23077 0
-6.92308 -9.23077 0
-6.15385 -9.23077 0
-5.38462 -9.23077 0
-4.61538 -9.23077 0
-3.84615 -9.23077 0
-3.07692 -9.23077 0
-2.30769 -9.23077 0
-1.53846 -9.23077 0
-0.769231 -9.23077 0
5.55112e-016 -9.23077 0
0.769231 -9.23077 0
1.53846 -9.23077 0
2.30769 -9.23077 0
3.07692 -9.23077 0
3.84615 -9.23077 0
4.61538 -9.23077 0
5.38462 -9.23077 0
6.15385 -9.23077 0
6.92308 -9.23077 0
7.69231 -9.23077 0
8.46154 -9.23077 0
10 -9.23077 0
-10 -8.46154 0
-9.23077 -8.46154 0
-8.46154 -8.46154 0
-7.69231 -8.46154 0
-6.92308 -8.46154 0
-6.15385 -8.46154 0
-5.38462 -8.46154 0
-4.61538 -8.46154 0
-3.84615 -8.46154 0
-3.07692 -8.46154 0
-2.30769 -8.46154 0
-1.53846 -8.46154 0
-0.769231 -8.46154 0
5.55112e-016 -8.46154 0
0.769231 -8.46154 0
1.53846 -8.46154 0
2.30769 -8.46154 0
3.07692 -8.46154 0
3.84615 -8.46154 0
4.61538 -8.46154 0
5.38462 -8.46154 0
6.15385 -8.46154 0
6.92308 -8.46154 0
7.69231 -8.46154 0
8.46154 -8.46154 0
10 -8.46154 0
-10 -7.69231 0
-9.23077 -7.69231 0
-8.46154 -7.69231 0
-7.69231 -7.69231 0
-6.92308 -7.69231 0
-6.15385 -7.69231 0
-5.38462 -7.69231 0
-4.61538 -7.69231 0
-3.84615 -7.69231 0
-3.07692 -7.69231 0
-2.30769 -7.69231 0
-1.53846 -7.69231 0
-0.769231 -7.69231 0
5.55112e-016 -7.69231 0
0.769231 -7.69231 0
1.53846 -7.69231 0
2.30769 -7.69231 0
3.07692 -7.69231 0
3.84615 -7.69231 0
4.61538 -7.69231 0
5.38462 -7.69231 0
6.15385 -7.69231 0
6.92308 -7.69231 0
7.69231 -7.69231 0
8.46154 -7.69231 0
10 -7.69231 0
-10 -6.92308 0
-9.23077 -6.92308 0
-8.46154 -6.92308 0
-7.69231 -6.92308 0
-6.92308 -6.92308 0
-6.15385 -6.92308 0
-5.38462 -6.92308 0
-4.61538 -6.92308 0
-3.84615 -6.92308 0
-3.07692 -6.92308 0
-2.30769 -6.92308 0
-1.53846 -6.92308 0
-0.769231 -6.92308 0
5.55112e-016 -6.92308 0
0.769231 -6.92308 0
1.53846 -6.92308 0
2.30769 -6.92308 0
3.07692 -6.92308 0
3.84615 -6.92308 0
4.61538 -6.92308 0
5.38462 -6.92308 0
6.15385 -6.92308 0
6.92308 -6.92308 0
7.69231 -6.92308 0
8.46154 -6.92308 0
10 -6.92308 0
-10 -6.15385 0
-9.23077 -6.15385 0
-8.46154 -6.15385 0
-7.69231 -6.15385 0
-6.92308 -6.15385 0
-6.15385 -6.15385 0
-5.38462 -6.15385 0
-4.61538 -6.15385 0
-3.84615 -6.15385 0
-3.07692 -6.15385 0
-2.30769 -6.15385 0
-1.53846 -6.15385 0
-0.769231 -6.15385 0
5.55112e-016 -6.15385 0
0.769231 -6.15385 0
1.53846 -6.15385 0
2.30769 -6.15385 0
3.07692 -6.15385 0
3.84615 -6.15385 0
4.61538 -6.15385 0
5.38462 -6.15385 0
6.15385 -6.15385 0
6.92308 -6.15385 0
7.69231 -6.15385 0
8.46154 -6.15385 0
10 -6.15385 0
-10 -5.38462 0
-9.23077 -5.38462 0
-8.46154 -5.38462 0
-7.69231 -5.38462 0
-6.92308 -5.38462 0
-6.15385 -5.38462 0
-5.38462 -5.38462 0
-4.61538 -5.38462 0
-3.84615 -5.38462 0
-3.07692 -5.38462 0
-2.30769 -5.38462 0
-1.53846 -5.38462 0
-0.769231 -5.38462 0
5.55112e-016 -5.38462 0
0.769231 -5.38462 0
1.53846 -5.38462 0
2.30769 -5.38462 0
3.07692 -5.38462 0
3.84615 -5.38462 0
4.61538 -5.38462 0
5.38462 -5.38462 0
6.15385 -5.38462 0
6.92308 -5.38462 0
7.69231 -5.38462 0
8.46154 -5.38462 0
10 -5.38462 0
-10 -4.61538 0
-9.23077 -4.61538 0
-8.46154 -4.61538 0
-7.69231 -4.61538 0
-6.92308 -4.61538 0
-6.15385 -4.61538 0
-5.38462 -4.61538 0
-4.61538 -4.61538 0
-3.84615 -4.61538 0
-3.07692 -4.61538 0
-2.30769 -4.61538 0
-1.53846 -4.61538 0
-0.769231 -4.61538 0
5.55112e-016 -4.61538 0
0.769231 -4.61538 0
1.53846 -4.61538 0
2.30769 -4.61538 0
3.07692 -4.61538 0
3.84615 -4.61538 0
4.61538 -4.61538 0
5.38462 -4.61538 0
6.15385 -4.61538 0
6.92308 -4.61538 0
7.69231 -4.61538 0
8.46154 -4.61538 0
10 -4.61538 0
-10 -3.84615 0
-9.23077 -3.84615 0
-8.46154 -3.84615 0
-7.69231 -3.84615 0
-6.92308 -3.84615 0
-6.15385 -3.84615 0
-5.38462 -3.84615 0
-4.61538 -3.84615 0
-3.84615 -3.84615 0
-3.07692 -3.84615 0
-2.30769 -3.84615 0
-1.53846 -3.84615 0
-0.769231 -3.84615 0
5.55112e-016 -3.84615 0
0.769231 -3.84615 0
1.53846 -3.84615 0
2.30769 -3.84615 0
3.07692 -3.84615 0
3.84615 -3.84615 0
4.61538 -3.84615 0
5.38462 -3.84615 0
6.15385 -3.84615 0
6.92308 -3.84615 0
7.69231 -3.84615 0
8.46154 -3.84615 0
10 -3.84615 0
-10 -3.07692 0
-9.23077 -3.07692 0
-8.46154 -3.07692 0
-7.69231 -3.07692 0
-6.92308 -3.07692 0
-6.15385 -3.07692 0
-5.38462 -3.07692 0
-4.61538 -3.07692 0
-3.84615 -3.07692 0
-3.07692 -3.07692 0
-2.30769 -3.07692 0
-1.53846 -3.07692 0
-0.769231 -3.07692 0
5.55112e-016 -3.07692 0
0.769231 -3.07692 0
1.53846 -3.07692 0
2.30769 -3.07692 0
3.07692 -3.07692 0
3.84615 -3.07692 0
4.61538 -3.07692 0
5.38462 -3.07692 0
6.15385 -3.07692 0
6.92308 -3.07692 0
7.69231 -3.07692 0
8.46154 -3.07692 0
10 -3.07692 0
-10 -2.30769 0
-9.23077 -2.30769 0
-8.46154 -2.30769 0
-7.69231 -2.30769 0
-6.92308 -2.30769 0
-6.15385 -2.30769 0
-5.38462 -2.30769 0
-4.61538 -2.30769 0
-3.84615 -2.30769 0
-3.07692 -2.30769 0
-2.30769 -2.30769 0
-1.53846 -2.30769 0
-0.769231 -2.30769 0
5.55112e-016 -2.30769 0
0.769231 -2.30769 0
1.53846 -2.30769 0
2.30769 -2.30769 0
3.07692 -2.30769 0
3.84615 -2.30769 0
4.61538 -2.30769 0
5.38462 -2.30769 0
6.15385 -2.30769 0
6.92308 -2.30769 0
7.69231 -2.30769 0
8.46154 -2.30769 0
10 -2.30769 0
-10 -1.53846 0
-9.23077 -1.53846 0
-8.46154 -1.53846 0
-7.69231 -1.53846 0
-6.92308 -1.53846 0
-6.15385 -1.53846 0
-5.38462 -1.53846 0
-4.61538 -1.53846 0
-3.84615 -1.53846 0
-3.07692 -1.53846 0
-2.30769 -1.53846 0
-1.53846 -1.53846 0
-0.769231 -1.53846 0
5.55112e-016 -1.53846 0
0.769231 -1.53846 0
1.53846 -1.53846 0
2.30769 -1.53846 0
3.07692 -1.53846 0
3.84615 -1.53846 0
4.61538 -1.53846 0
5.38462 -1.53846 0
6.15385 -1.53846 0
6.92308 -1.53846 0
7.69231 -1.53846 0
8.46154 -1.53846 0
10 -1.53846 0
-10 -0.769231 0
-9.23077 -0.769231 0
-8.46154 -0.769231 0
-7.69231 -0.769231 0
-6.92308 -0.769231 0
-6.15385 -0.769231 0
-5.38462 -0.769231 0
-4.61538 -0.769231 0
-3.84615 -0.769231 0
-3.07692 -0.769231 0
-2.30769 -0.769231 0
-1.53846 -0.769231 0
-0.769231 -0.769231 0
5.55112e-016 -0.769231 0
0.769231 -0.769231 0
1.53846 -0.769231 0
2.30769 -0.769231 0
3.07692 -0.769231 0
3.84615 -0.769231 0
4.61538 -0.769231 0
5.38462 -0.769231 0
6.15385 -0.769231 0
6.92308 -0.769231 0
7.69231 -0.769231 0
8.46154 -0.769231 0
10 -0.769231 0
-10 5.55112e-016 0
-9.23077 5.55112e-016 0
-8.46154 5.55112e-016 0
-7.69231 5.55112e-016 0
-6.92308 5.55112e-016 0
-6.15385 5.55112e-016 0
-5.38462 5.55112e-016 0
-4.61538 5.55112e-016 0
-3.84615 5.55112e-016 0
-3.07692 5.55112e-016 0
-2.30769 5.55112e-016 0
-1.53846 5.55112e-016 0
-0.769231 5.55112e-016 0
5.55112e-016 5.55112e-016 0
0.769231 5.55112e-016 0
1.53846 5.55112e-016 0
2.30769 5.55112e-016 0
3.07692 5.55112e-016 0
3.84615 5.55112e-016 0
4.61538 5.55112e-016 0
5.38462 5.55112e-016 0
6.15385 5.55112e-016 0
6.92308 5.55112e-016 0
7.69231 5.55112e-016 0
8.46154 5.55112e-016 0
10 5.55112e-016 0
-10 0.769231 0
-9.23077 0.769231 0
-8.46154 0.769231 0
-7.69231 0.769231 0
-6.92308 0.769231 0
-6.15385 0.769231 0
-5.38462 0.769231 0
-4.61538 0.769231 0
-3.84615 0.769231 0
-3.07692 0.769231 0
-2.30769 0.769231 0
-1.53846 0.769231 0
-0.769231 0.769231 0
5.55112e-016 0.769231 0
0.769231 0.769231 0
1.53846 0.769231 0
2.30769 0.769231 0
3.07692 0.769231 0
3.84615 0.769231 0
4.61538 0.769231 0
5.38462 0.769231 0
6.15385 0.769231 0
6.92308 0.769231 0
7.69231 0.769231 0
8.46154 0.769231 0
10 0.769231 0
-10 1.53846 0
-9.23077 1.53846 0
-8.46154 1.53846 0
-7.69231 1.53846 0
-6.92308 1.53846 0
-6.15385 1.53846 0
-5.38462 1.53846 0
-4.61538 1.53846 0
-3.84615 1.53846 0
-3.07692 1.53846 0
-2.30769 1.53846 0
-1.53846 1.53846 0
-0.769231 1.53846 0
5.55112e-016 1.53846 0
0.769231 1.53846 0
1.53846 1.53846 0
2.30769 1.53846 0
3.07692 1.53846 0
3.84615 1.53846 0
4.61538 1.53846 0
5.38462 1.53846 0
6.15385 1.53846 0
6.92308 1.53846 0
7.69231 1.53846 0
8.46154 1.53846 0
10 1.53846 0
-10 2.30769 0
-9.23077 2.30769 0
-8.46154 2.30769 0
-7.69231 2.30769 0
-6.92308 2.30769 0
-6.15385 2.30769 0
-5.38462 2.30769 0
-4.61538 2.30769 0
-3.84615 2.30769 0
-3.07692 2.30769 0
-2.30769 2.30769 0
-1.53846 2.30769 0
-0.769231 2.30769 0
5.55112e-016 2.30769 0
0.769231 2.30769 0
1.53846 2.30769 0
2.30769 2.30769 0
3.07692 2.30769 0
3.84615 2.30769 0
4.61538 2.30769 0
5.38462 2.30769 0
6.15385 2.30769 0
6.92308 2.30769 0
7.69231 2.30769 0
8.46154 2.30769 0
10 2.30769 0
-10 3.07692 0
-9.23077 3.07692 0
-8.46154 3.07692 0
-7.69231 3.07692 0
-6.92308 3.07692 0
-6.15385 3.07692 0
-5.38462 3.07692 0
-4.61538 3.07692 0
-3.84615 3.07692 0
-3.07692 3.07692 0
-2.30769 3.07692 0
-1.53846 3.07692 0
-0.769231 3.07692 0
5.55112e-016 3.07692 0
0.769231 3.07692 0
1.53846 3.07692 0
2.30769 3.07692 0
3.07692 3.07692 0
3.84615 3.07692 0
4.61538 3.07692 0
5.38462 3.07692 0
6.15385 3.07692 0
6.92308 3.07692 0
7.69231 3.07692 0
8.46154 3.07692 0
10 3.07692 0
-10 3.84615 0
-9.23077 3.84615 0
-8.46154 3.84615 0
-7.69231 3.84615 0
-6.92308 3.84615 0
-6.15385 3.84615 0
-5.38462 3.84615 0
-4.61538 3.84615 0
-3.84615 3.84615 0
-3.07692 3.84615 0
-2.30769 3.84615 0
-1.53846 3.84615 0
-0.769231 3.84615 0
5.55112e-016 3.84615 0
0.769231 3.84615 0
1.53846 3.84615 0
2.30769 3.84615 0
3.07692 3.84615 0
3.84615 3.84615 0
4.61538 3.84615 0
5.38462 3.84615 0
6.15385 3.84615 0
6.92308 3.84615 0
7.69231 3.84615 0
8.46154 3.84615 0
10 3.84615 0
-10 4.61538 0
-9.23077 4.61538 0
-8.46154 4.61538 0
-7.69231 4.61538 0
-6.92308 4.61538 0
-6.15385 4.61538 0
-5.38462 4.61538 0
-4.61538 4.61538 0
-3.84615 4.61538 0
-3.07692 4.61538 0
-2.30769 4.61538 0
-1.53846 4.61538 0
-0.769231 4.61538 0
5.55112e-016 4.61538 0
0.769231 4.61538 0
1.53846 4.61538 0
2.30769 4.61538 0
3.07692 4.61538 0
3.84615 4.61538 0
4.61538 4.61538 0
5.38462 4.61538 0
6.15385 4.61538 0
6.92308 4.61538 0
7.69231 4.61538 0
8.46154 4.61538 0
10 4.61538 0
-10 5.38462 0
-9.23077 5.38462 0
-8.46154 5.38462 0
-7.69231 5.38462 0
-6.92308 5.38462 0
-6.15385 5.38462 0
-5.38462 5.38462 0
-4.61538 5.38462 0
-3.84615 5.38462 0
-3.07692 5.38462 0
-2.30769 5.38462 0
-1.53846 5.38462 0
-0.769231 5.38462 0
5.55112e-016 5.38462 0
0.769231 5.38462 0
1.53846 5.38462 0
2.30769 5.38462 0
3.07692 5.38462 0
3.84615 5.38462 0
4.61538 5.38462 0
5.38462 5.38462 0
6.15385 5.38462 0
6.92308 5.38462 0
7.69231 5.38462 0
8.46154 5.38462 0
10 5.38462 0
-10 6.15385 0
-9.23077 6.15385 0
-8.46154 6.15385 0
-7.69231 6.15385 0
-6.92308 6.15385 0
-6.15385 6.15385 0
-5.38462 6.15385 0
-4.61538 6.15385 0
-3.84615 6.15385 0
-3.07692 6.15385 0
-2.30769 6.15385 0
-1.53846 6.15385 0
-0.769231 6.15385 0
5.55112e-016 6.15385 0
0.769231 6.15385 0
1.53846 6.15385 0
2.30769 6.15385 0
3.07692 6.15385 0
3.84615 6.15385 0
4.61538 6.15385 0
5.38462 6.15385 0
6.15385 6.15385 0
6.92308 6.15385 0
7.69231 6.15385 0
8.46154 6.15385 0
10 6.15385 0
-10 6.92308 0
-9.23077 6.92308 0
-8.46154 6.92308 0
-7.69231 6.92308 0
-6.92308 6.92308 0
-6.15385 6.92308 0
-5.38462 6.92308 0
-4.61538 6.92308 0
-3.84615 6.92308 0
-3.07692 6.92308 0
-2.30769 6.92308 0
-1.53846 6.92308 0
-0.769231 6.92308 0
5.55112e-016 6.92308 0
0.769231 6.92308 0
1.53846 6.92308 0
2.30769 6.92308 0
3.07692 6.92308 0
3.84615 6.92308 0
4.61538 6.92308 0
5.38462 6.92308 0
6.15385 6.92308 0
6.92308 6.92308 0
7.69231 6.92308 0
8.46154 6.92308 0
10 6.92308 0
-10 7.69231 0
-9.23077 7.69231 0
-8.46154 7.69231 0
-7.69231 7.69231 0
-6.92308 7.69231 0
-6.15385 7.69231 0
-5.38462 7.69231 0
-4.61538 7.69231 0
-3.84615 7.69231 0
-3.07692 7.69231 0
-2.30769 7.69231 0
-1.53846 7.69231 0
-0.769231 7.69231 0
5.55112e-016 7.69231 0
0.769231 7.69231 0
1.53846 7.69231 0
2.30769 7.69231 0
3.07692 7.69231 0
3.84615 7.69231 0
4.61538 7.69231 0
5.38462 7.69231 0
6.15385 7.69231 0
6.92308 7.69231 0
7.69231 7.69231 0
8.46154 7.69231 0
10 7.69231 0
-10 8.46154 0
-9.23077 8.46154 0
-8.46154 8.46154 0
-7.69231 8.46154 0
-6.92308 8.46154 0
-6.15385 8.46154 0
-5.38462 8.46154 0
-4.61538 8.46154 0
-3.84615 8.46154 0
-3.07692 8.46154 0
-2.30769 8.46154 0
-1.53846 8.46154 0
-0.769231 8.46154 0
5.55112e-016 8.46154 0
0.769231 8.46154 0
1.53846 8.46154 0
2.30769 8.46154 0
3.07692 8.46154 0
3.84615 8.46154 0
4.61538 8.46154 0
5.38462 8.46154 0
6.15385 8.46154 0
6.92308 8.46154 0
7.69231 8.46154 0
8.46154 8.46154 0
10 8.46154 0
-10 10 0
-9.23077 10 0
-8.46154 10 0
-7.69231 10 0
-6.92308 10 0
-6.15385 10 0
-5.38462 10 0
-4.61538 10 0
-3.84615 10 0
-3.07692 10 0
-2.30769 10 0
-1.53846 10 0
-0.769231 10 0
5.55112e-016 10 0
0.769231 10 0
1.53846 10 0
2.30769 10 0
3.07692 10 0
3.84615 10 0
4.61538 10 0
5.38462 10 0
6.15385 10 0
6.92308 10 0
7.69231 10 0
8.46154 10 0
10 10 0

POINT_DATA 676
SCALARS h double 1
LOOkUP_TABLE default
0.0575355
0.0547384
0.0515154
0.0480173
0.0444142
0.0408667
0.0375263
0.034533
0.0320033
0.0300206
0.0286379
0.0278969
0.0278584
0.0286232
0.0303229
0.0330679
0.0368614
0.0415188
0.0466365
0.0516455
0.0559391
0.0590254
0.0606392
0.0607715
0.0596257
0.0575355
0.0753214
0.0715296
0.0668884
0.0616766
0.0561933
0.0507112
0.045456
0.040617
0.0363487
0.0327715
0.0299808
0.0280671
0.0271469
0.0273877
0.0290084
0.0322309
0.0371774
0.0437368
0.051463
0.0595782
0.0671135
0.0731487
0.0770379
0.0785596
0.0778373
0.0753214
0.0981905
0.0934304
0.0870972
0.0797089
0.0717907
0.0638137
0.0561433
0.0490538
0.0427435
0.0373514
0.0329771
0.0297125
0.0276806
0.0270749
0.0281804
0.0313496
0.0369028
0.044949
0.0551807
0.066756
0.0783751
0.0885636
0.0960632
0.10014
0.100694
0.0981905
0.126489
0.1212
0.113112
0.103124
0.0921395
0.0809539
0.0701737
0.0602236
0.0513756
0.0437849
0.0375319
0.032671
0.0292842
0.0275377
0.0277298
0.0303057
0.0357964
0.0446353
0.0568619
0.0718277
0.0880897
0.103631
0.116362
0.124713
0.127986
0.126489
0.159598
0.154899
0.145493
0.13276
0.118156
0.102987
0.0882582
0.0746572
0.0625933
0.0522595
0.0437075
0.0369242
0.0319078
0.0287428
0.0276717
0.029153
0.0338628
0.0425682
0.0558081
0.0734326
0.0942207
0.115857
0.135405
0.150137
0.158303
0.159598
0.195202
0.193219
0.183802
0.168806
0.150393
0.130603
0.111064
0.092911
0.0768062
0.0630399
0.051648
0.0425338
0.0355765
0.0307293
0.0281111
0.0280956
0.0313792
0.0389537
0.0518648
0.070689
0.0948765
0.122333
0.149598
0.172727
0.18845
0.195202
0.228828
0.232747
0.225832
0.210124
0.188497
0.163924
0.138939
0.115377
0.094353
0.0763708
0.0615037
0.0495778
0.0403329
0.0335532
0.029177
0.0274053
0.0288119
0.0344185
0.045606
0.0636884
0.089127
0.120696
0.155128
0.187672
0.213395
0.228828
0.254107
0.267678
0.266975
0.253505
0.230519
0.201956
0.171497
0.141999
0.11531
0.0923505
0.073344
0.0580877
0.0461863
0.0372349
0.0309557
0.0273152
0.0266505
0.0298074
0.0382097
0.0536562
0.0776417
0.110293
0.149429
0.190424
0.227185
0.254107
0.264311
0.290594
0.300302
0.293284
0.272335
0.241993
0.207132
0.171909
0.139246
0.11077
0.0870576
0.0679863
0.0530718
0.0417284
0.0334502
0.0279427
0.0252456
0.0258847
0.0310377
0.0425709
0.0626615
0.0928252
0.132612
0.178684
0.224969
0.264311
0.254952
0.29464
0.317933
0.321906
0.307628
0.27931
0.242623
0.203074
0.164951
0.130935
0.102243
0.0790267
0.0608211
0.0469089
0.0365752
0.0292699
0.0247281
0.0231036
0.0251513
0.0324131
0.0471815
0.0718954
0.107881
0.153908
0.205359
0.254952
0.226248
0.276496
0.313736
0.331848
0.32895
0.307552
0.273133
0.232134
0.190253
0.151512
0.118105
0.0907344
0.0691379
0.0525738
0.0401758
0.0311742
0.0250315
0.0215534
0.0210374
0.0244875
0.0338002
0.0516074
0.0804261
0.121179
0.171695
0.226248
0.183744
0.238513
0.286278
0.318518
0.329965
0.320143
0.292918
0.254656
0.212042
0.170477
0.133395
0.102363
0.0775772
0.0584436
0.044051
0.0334788
0.0259744
0.0210611
0.0186449
0.0191815
0.023916
0.0350364
0.055361
0.087268
0.131079
0.183744
0.136349
0.188403
0.240222
0.282743
0.308147
0.312522
0.29684
0.265992
0.226675
0.185256
0.146438
0.112886
0.0855316
0.0641579
0.0479673
0.0359925
0.027345
0.0213472
0.0176177
0.0161783
0.0176386
0.0234431
0.0359573
0.0579905
0.0915639
0.136349
0.0928254
0.136301
0.184949
0.231177
0.266468
0.284293
0.282288
0.262656
0.230799
0.193152
0.155311
0.121051
0.092239
0.0692705
0.0516568
0.038525
0.0289509
0.0221431
0.0175369
0.0148644
0.0142638
0.0164749
0.0230673
0.036435
0.0591748
0.0928254
0.0588311
0.0909357
0.130968
0.174024
0.212838
0.240018
0.250624
0.243761
0.222444
0.192026
0.158206
0.125543
0.096838
0.0732575
0.0548119
0.0408829
0.0306305
0.0232424
0.0180631
0.014658
0.0128751
0.0129566
0.0157303
0.0227957
0.0364172
0.0588311
0.0359631
0.0570586
0.08621
0.121245
0.157302
0.187932
0.207203
0.211789
0.201966
0.18107
0.153942
0.125263
0.0984954
0.0755625
0.0570908
0.0428613
0.0322432
0.0245014
0.0189729
0.0151507
0.0127303
0.0116655
0.012279
0.0154341
0.0226593
0.0359631
0.0227238
0.0351799
0.0541499
0.0793974
0.108521
0.137074
0.159731
0.172109
0.172303
0.161346
0.142461
0.119685
0.096612
0.0756949
0.0581543
0.0442485
0.0336592
0.0258211
0.0201405
0.0161116
0.0133704
0.0117291
0.0112294
0.0122446
0.0156181
0.0227238
0.0163217
0.0230382
0.0342244
0.0505543
0.0713874
0.0943602
0.115696
0.131315
0.138265
0.135728
0.125088
0.109153
0.0910556
0.0733754
0.0577406
0.0448566
0.0347634
0.0271338
0.0215089
0.0174429
0.014576
0.0126688
0.0116303
0.0115673
0.0128723
0.0163217
0.014189
0.0175484
0.0236391
0.0332781
0.0466941
0.0630336
0.0801766
0.0951501
0.105069
0.108159
0.104317
0.0949579
0.0823234
0.0686806
0.0557627
0.0445744
0.0354775
0.0284043
0.0230717
0.0191375
0.0162913
0.0142977
0.0130181
0.0124351
0.0126975
0.014189
0.0146509
0.0161802
0.0192704
0.0245436
0.032444
0.042899
0.0550079
0.0670318
0.0768133
0.0824909
0.0831522
0.0790825
0.0715194
0.0621124
0.0523871
0.0434249
0.0357929
0.0296426
0.0248699
0.0212578
0.0185734
0.0166199
0.0152606
0.0144335
0.0141734
0.0146509
0.0168876
0.0174075
0.0187901
0.0214263
0.0256838
0.0317457
0.039372
0.0477508
0.0555838
0.0614428
0.0642549
0.0636671
0.0601049
0.0545267
0.0480437
0.0415968
0.035796
0.0309183
0.0269964
0.0239288
0.0215678
0.0197734
0.0184397
0.0175052
0.0169642
0.0168876
0.0206661
0.020551
0.0208912
0.0219164
0.0238634
0.0269305
0.0311407
0.0362094
0.0415012
0.0461457
0.0492986
0.0504328
0.0495055
0.0469222
0.0433377
0.0394172
0.035664
0.0323597
0.0295937
0.0273347
0.0255009
0.0240089
0.0227965
0.0218299
0.0211068
0.0206661
0.0261371
0.0255007
0.0250617
0.0249654
0.0253514
0.0263714
0.028122
0.0305614
0.033451
0.0363651
0.0387966
0.0403226
0.0407519
0.0401736
0.0388876
0.0372654
0.0356176
0.0341235
0.0328309
0.0317019
0.0306701
0.0296818
0.0287151
0.0277778
0.0269008
0.0261371
0.0337664
0.0325609
0.0313504
0.0302613
0.0293859
0.02884
0.0287325
0.0291221
0.029973
0.0311384
0.0323914
0.0335006
0.034319
0.0348364
0.0351639
0.0354607
0.035845
0.0363373
0.0368566
0.0372641
0.0374239
0.037252
0.0367357
0.0359225
0.0348977
0.0337664
0.0439944
0.0420745
0.0399768
0.0378097
0.0356787
0.0336994
0.0319911
0.0306582
0.0297644
0.0293155
0.0292656
0.0295499
0.0301312
0.0310319
0.0323264
0.0340894
0.0363231
0.038903
0.041575
0.0440102
0.0458938
0.0470084
0.047278
0.0467575
0.0456001
0.0439944
0.0575355
0.0547384
0.0515154
0.0480173
0.0444142
0.0408667
0.0375263
0.034533
0.0320033
0.0300206
0.0286379
0.0278969
0.0278584
0.0286232
0.0303229
0.0330679
0.0368614
0.0415188
0.0466365
0.0516455
0.0559391
0.0590254
0.0606392
0.0607715
0.0596257
0.0575355

VECTORS u double
-158.755 158.886 0.0
-159.248 158.741 0.0
-159.754 158.309 0.0
-160.343 157.62 0.0
-161.001 156.673 0.0
-161.685 155.475 0.0
-162.346 154.052 0.0
-162.93 152.448 0.0
-163.393 150.736 0.0
-163.697 149.024 0.0
-163.811 147.446 0.0
-163.707 146.151 0.0
-163.36 145.294 0.0
-162.775 145.012 0.0
-162.007 145.387 0.0
-161.168 146.398 0.0
-160.387 147.906 0.0
-159.757 149.696 0.0
-159.311 151.551 0.0
-159.028 153.31 0.0
-158.869 154.871 0.0
-158.794 156.183 0.0
-158.776 157.228 0.0
-158.798 157.999 0.0
-158.852 158.542 0.0
-158.755 158.886 0.0
-160.462 160.557 0.0
-160.916 160.558 0.0
-161.431 160.04 0.0
-162.038 159.308 0.0
-162.702 158.345 0.0
-163.374 157.156 0.0
-163.999 155.756 0.0
-164.517 154.174 0.0
-164.875 152.457 0.0
-165.025 150.676 0.0
-164.931 148.941 0.0
-164.566 147.4 0.0
-163.926 146.244 0.0
-163.045 145.678 0.0
-162.025 145.861 0.0
-161.029 146.811 0.0
-160.216 148.37 0.0
-159.675 150.272 0.0
-159.406 152.257 0.0
-159.354 154.142 0.0
-159.452 155.825 0.0
-159.648 157.262 0.0
-159.908 158.44 0.0
-160.249 159.357 0.0
-160.594 160.035 0.0
-160.462 160.557 0.0
-162.397 161.776 0.0
-162.736 161.908 0.0
-163.182 161.439 0.0
-163.767 160.708 0.0
-164.423 159.74 0.0
-165.085 158.551 0.0
-165.693 157.159 0.0
-166.184 155.588 0.0
-166.496 153.871 0.0
-166.577 152.058 0.0
-166.379 150.229 0.0
-165.863 148.505 0.0
-165.014 147.074 0.0
-163.869 146.181 0.0
-162.562 146.071 0.0
-161.317 146.849 0.0
-160.359 148.385 0.0
-159.804 150.373 0.0
-159.637 152.499 0.0
-159.768 154.545 0.0
-160.101 156.394 0.0
-160.563 157.996 0.0
-161.111 159.336 0.0
-161.724 160.398 0.0
-162.357 161.191 0.0
-162.397 161.776 0.0
-164.073 162.551 0.0
-164.452 162.778 0.0
-164.889 162.439 0.0
-165.46 161.768 0.0
-166.106 160.827 0.0
-166.762 159.65 0.0
-167.362 158.265 0.0
-167.841 156.698 0.0
-168.138 154.979 0.0
-168.197 153.146 0.0
-167.964 151.257 0.0
-167.389 149.404 0.0
-166.435 147.742 0.0
-165.112 146.517 0.0
-163.542 146.035 0.0
-161.991 146.526 0.0
-160.779 147.947 0.0
-160.099 149.987 0.0
-159.948 152.263 0.0
-160.206 154.495 0.0
-160.737 156.535 0.0
-161.437 158.322 0.0
-162.232 159.826 0.0
-163.078 161.022 0.0
-163.875 161.905 0.0
-164.073 162.551 0.0
-165.467 162.874 0.0
-165.956 163.219 0.0
-166.447 163.033 0.0
-167.034 162.464 0.0
-167.686 161.584 0.0
-168.344 160.441 0.0
-168.945 159.073 0.0
-169.424 157.513 0.0
-169.721 155.792 0.0
-169.782 153.946 0.0
-169.555 152.018 0.0
-168.984 150.077 0.0
-168.017 148.239 0.0
-166.624 146.713 0.0
-164.873 145.824 0.0
-163.017 145.913 0.0
-161.461 147.098 0.0
-160.531 149.12 0.0
-160.287 151.53 0.0
-160.593 153.957 0.0
-161.265 156.2 0.0
-162.152 158.173 0.0
-163.148 159.837 0.0
-164.178 161.162 0.0
-165.132 162.143 0.0
-165.467 162.874 0.0
-166.579 162.738 0.0
-167.21 163.231 0.0
-167.792 163.212 0.0
-168.428 162.776 0.0
-169.106 161.988 0.0
-169.78 160.906 0.0
-170.393 159.573 0.0
-170.882 158.031 0.0
-171.192 156.316 0.0
-171.269 154.465 0.0
-171.067 152.515 0.0
-170.537 150.518 0.0
-169.62 148.558 0.0
-168.257 146.795 0.0
-166.447 145.514 0.0
-164.361 145.118 0.0
-162.42 145.912 0.0
-161.108 147.794 0.0
-160.632 150.287 0.0
-160.877 152.902 0.0
-161.61 155.35 0.0
-162.626 157.508 0.0
-163.778 159.333 0.0
-164.969 160.792 0.0
-166.077 161.888 0.0
-166.579 162.738 0.0
-167.375 162.14 0.0
-168.172 162.803 0.0
-168.876 162.967 0.0
-169.59 162.689 0.0
-170.318 162.026 0.0
-171.026 161.032 0.0
-171.665 159.759 0.0
-172.176 158.254 0.0
-172.508 156.559 0.0
-172.611 154.713 0.0
-172.446 152.755 0.0
-171.971 150.73 0.0
-171.136 148.697 0.0
-169.873 146.769 0.0
-168.126 145.163 0.0
-165.95 144.263 0.0
-163.675 144.517 0.0
-161.881 146.075 0.0
-161.004 148.546 0.0
-161.044 151.32 0.0
-161.74 153.973 0.0
-162.819 156.322 0.0
-164.087 158.312 0.0
-165.419 159.916 0.0
-166.686 161.147 0.0
-167.375 162.14 0.0
-167.829 161.096 0.0
-168.81 161.939 0.0
-169.662 162.298 0.0
-170.482 162.201 0.0
-171.284 161.69 0.0
-172.045 160.816 0.0
-172.725 159.631 0.0
-173.272 158.187 0.0
-173.637 156.532 0.0
-173.777 154.709 0.0
-173.656 152.761 0.0
-173.241 150.729 0.0
-172.495 148.662 0.0
-171.36 146.637 0.0
-169.76 144.802 0.0
-167.652 143.459 0.0
-165.196 143.088 0.0
-162.918 144.101 0.0
-161.48 146.365 0.0
-161.134 149.229 0.0
-161.664 152.086 0.0
-162.729 154.639 0.0
-164.068 156.806 0.0
-165.52 158.567 0.0
-166.94 159.948 0.0
-167.829 161.096 0.0
-167.922 159.643 0.0
-169.1 160.665 0.0
-170.119 161.223 0.0
-171.072 161.323 0.0
-171.972 160.991 0.0
-172.808 160.267 0.0
-173.546 159.201 0.0
-174.144 157.847 0.0
-174.556 156.257 0.0
-174.742 154.479 0.0
-174.671 152.561 0.0
-174.318 150.545 0.0
-173.657 148.475 0.0
-172.647 146.407 0.0
-171.22 144.439 0.0
-169.291 142.772 0.0
-166.859 141.807 0.0
-164.244 142.094 0.0
-162.169 143.881 0.0
-161.235 146.685 0.0
-161.43 149.721 0.0
-162.38 152.499 0.0
-163.735 154.865 0.0
-165.277 156.798 0.0
-166.834 158.338 0.0
-167.922 159.643 0.0
-167.649 157.838 0.0
-169.025 159.029 0.0
-170.228 159.782 0.0
-171.334 160.085 0.0
-172.357 159.95 0.0
-173.29 159.404 0.0
-174.106 158.489 0.0
-174.771 157.257 0.0
-175.244 155.762 0.0
-175.489 154.058 0.0
-175.477 152.194 0.0
-175.188 150.216 0.0
-174.604 148.17 0.0
-173.701 146.101 0.0
-172.429 144.076 0.0
-170.709 142.22 0.0
-168.458 140.803 0.0
-165.762 140.331 0.0
-163.153 141.35 0.0
-161.477 143.813 0.0
-161.125 146.932 0.0
-161.82 149.948 0.0
-163.116 152.544 0.0
-164.705 154.67 0.0
-166.374 156.378 0.0
-167.649 157.838 0.0
-167.015 155.749 0.0
-168.584 157.096 0.0
-169.977 158.03 0.0
-171.253 158.535 0.0
-172.421 158.607 0.0
-173.472 158.259 0.0
-174.387 157.524 0.0
-175.137 156.447 0.0
-175.687 155.081 0.0
-176.004 153.48 0.0
-176.062 151.699 0.0
-175.842 149.787 0.0
-175.33 147.79 0.0
-174.513 145.753 0.0
-173.362 143.727 0.0
-171.819 141.792 0.0
-169.796 140.109 0.0
-167.24 139.029 0.0
-164.381 139.141 0.0
-161.982 140.877 0.0
-160.868 143.824 0.0
-161.111 147.033 0.0
-162.244 149.893 0.0
-163.826 152.246 0.0
-165.574 154.138 0.0
-167.015 155.749 0.0
-166.034 153.45 0.0
-167.784 154.938 0.0
-169.366 156.038 0.0
-170.822 156.732 0.0
-172.15 157.01 0.0
-173.34 156.872 0.0
-174.375 156.339 0.0
-175.229 155.447 0.0
-175.872 154.242 0.0
-176.275 152.779 0.0
-176.414 151.112 0.0
-176.269 149.294 0.0
-175.83 147.375 0.0
-175.085 145.399 0.0
-174.02 143.415 0.0
-172.601 141.48 0.0
-170.763 139.691 0.0
-168.428 138.252 0.0
-165.614 137.592 0.0
-162.757 138.327 0.0
-160.793 140.659 0.0
-160.345 143.85 0.0
-161.154 146.963 0.0
-162.659 149.579 0.0
-164.45 151.682 0.0
-166.034 153.45 0.0
-164.714 151.006 0.0
-166.635 152.63 0.0
-168.402 153.877 0.0
-170.041 154.743 0.0
-171.541 155.216 0.0
-172.886 155.29 0.0
-174.059 154.972 0.0
-175.035 154.286 0.0
-175.788 153.272 0.0
-176.292 151.978 0.0
-176.523 150.458 0.0
-176.463 148.766 0.0
-176.098 146.953 0.0
-175.419 145.069 0.0
-174.416 143.162 0.0
-173.071 141.283 0.0
-171.349 139.5 0.0
-169.192 137.93 0.0
-166.557 136.817 0.0
-163.594 136.639 0.0
-160.964 137.949 0.0
-159.639 140.658 0.0
-159.895 143.848 0.0
-161.21 146.725 0.0
-163.006 149.067 0.0
-164.714 151.006 0.0
-163.042 148.483 0.0
-165.134 150.242 0.0
-167.088 151.621 0.0
-168.913 152.637 0.0
-170.593 153.288 0.0
-172.107 153.562 0.0
-173.433 153.46 0.0
-174.547 152.993 0.0
-175.426 152.19 0.0
-176.045 151.093 0.0
-176.38 149.751 0.0
-176.412 148.215 0.0
-176.126 146.54 0.0
-175.51 144.777 0.0
-174.556 142.979 0.0
-173.253 141.2 0.0
-171.586 139.499 0.0
-169.528 137.956 0.0
-167.047 136.7 0.0
-164.181 135.996 0.0
-161.253 136.306 0.0
-159.105 138.028 0.0
-158.554 140.83 0.0
-159.486 143.8 0.0
-161.223 146.363 0.0
-163.042 148.483 0.0
-160.974 145.979 0.0
-163.255 147.853 0.0
-165.413 149.343 0.0
-167.438 150.485 0.0
-169.308 151.287 0.0
-171.001 151.742 0.0
-172.493 151.843 0.0
-173.76 151.595 0.0
-174.778 151.015 0.0
-175.523 150.133 0.0
-175.973 148.992 0.0
-176.105 147.641 0.0
-175.904 146.133 0.0
-175.353 144.523 0.0
-174.442 142.867 0.0
-173.164 141.225 0.0
-171.514 139.661 0.0
-169.489 138.243 0.0
-167.089 137.053 0.0
-164.339 136.218 0.0
-161.39 135.973 0.0
-158.744 136.681 0.0
-157.294 138.547 0.0
-157.549 141.142 0.0
-159.074 143.731 0.0
-160.974 145.979 0.0
-158.47 143.723 0.0
-160.943 145.604 0.0
-163.339 147.148 0.0
-165.595 148.371 0.0
-167.677 149.286 0.0
-169.565 149.888 0.0
-171.237 150.17 0.0
-172.67 150.126 0.0
-173.839 149.764 0.0
-174.721 149.105 0.0
-175.294 148.181 0.0
-175.534 147.036 0.0
-175.422 145.721 0.0
-174.938 144.293 0.0
-174.07 142.812 0.0
-172.809 141.345 0.0
-171.159 139.964 0.0
-169.133 138.737 0.0
-166.758 137.733 0.0
-164.083 137.019 0.0
-161.21 136.681 0.0
-158.411 136.862 0.0
-156.295 137.769 0.0
-155.643 139.46 0.0
-156.629 141.595 0.0
-158.47 143.723 0.0
-155.664 142.237 0.0
-158.188 143.814 0.0
-160.822 145.234 0.0
-163.348 146.433 0.0
-165.68 147.388 0.0
-167.79 148.082 0.0
-169.66 148.501 0.0