# vtk DataFile Version 2.0
Particulate Flow Equations Solution
ASCII
DATASET STRUCTURED_GRID
DIMENSIONS 26 26 1
POINTS 676 double
-10 -10 0
-9.23077 -10 0
-8.46154 -10 0
-7.69231 -10 0
-6.92308 -10 0
-6.15385 -10 0
-5.38462 -10 0
-4.61538 -10 0
-3.84615 -10 0
-3.07692 -10 0
-2.30769 -10 0
-1.53846 -10 0
-0.769231 -10 0
5.55112e-016 -10 0
0.769231 -10 0
1.53846 -10 0
2.30769 -10 0
3.07692 -10 0
3.84615 -10 0
4.61538 -10 0
5.38462 -10 0
6.15385 -10 0
6.92308 -10 0
7.69231 -10 0
8.46154 -10 0
10 -10 0
-10 -9.23077 0
-9.23077 -9.23077 0
-8.46154 -9.23077 0
-7.69231 -9.23077 0
-6.92308 -9.23077 0
-6.15385 -9.23077 0
-5.38462 -9.23077 0
-4.61538 -9.23077 0
-3.84615 -9.23077 0
-3.07692 -9.23077 0
-2.30769 -9.23077 0
-1.53846 -9.23077 0
-0.769231 -9.23077 0
5.55112e-016 -9.23077 0
0.769231 -9.23077 0
1.53846 -9.23077 0
2.30769 -9.23077 0
3.07692 -9.23077 0
3.84615 -9.23077 0
4.61538 -9.23077 0
5.38462 -9.23077 0
6.15385 -9.23077 0
6.92308 -9.23077 0
7.69231 -9.23077 0
8.46154 -9.23077 0
10 -9.23077 0
-10 -8.46154 0
-9.23077 -8.46154 0
-8.46154 -8.46154 0
-7.69231 -8.46154 0
-6.92308 -8.46154 0
-6.15385 -8.46154 0
-5.38462 -8.46154 0
-4.61538 -8.46154 0
-3.84615 -8.46154 0
-3.07692 -8.46154 0
-2.30769 -8.46154 0
-1.53846 -8.46154 0
-0.769231 -8.46154 0
5.55112e-016 -8.46154 0
0.769231 -8.46154 0
1.53846 -8.46154 0
2.30769 -8.46154 0
3.07692 -8.46154 0
3.84615 -8.46154 0
4.61538 -8.46154 0
5.38462 -8.46154 0
6.15385 -8.46154 0
6.92308 -8.46154 0
7.69231 -8.46154 0
8.46154 -8.46154 0
10 -8.46154 0
-10 -7.69231 0
-9.23077 -7.69231 0
-8.46154 -7.69231 0
-7.69231 -7.69231 0
-6.92308 -7.69231 0
-6.15385 -7.69231 0
-5.38462 -7.69231 0
-4.61538 -7.69231 0
-3.84615 -7.69231 0
-3.07692 -7.69231 0
-2.30769 -7.69231 0
-1.53846 -7.69231 0
-0.769231 -7.69231 0
5.55112e-016 -7.69231 0
0.769231 -7.69231 0
1.53846 -7.69231 0
2.30769 -7.69231 0
3.07692 -7.69231 0
3.84615 -7.69231 0
4.61538 -7.69231 0
5.38462 -7.69231 0
6.15385 -7.69231 0
6.92308 -7.69231 0
7.69231 -7.69231 0
8.46154 -7.69231 0
10 -7.69231 0
-10 -6.92308 0
-9.23077 -6.92308 0
-8.46154 -6.92308 0
-7.69231 -6.92308 0
-6.92308 -6.92308 0
-6.15385 -6.92308 0
-5.38462 -6.92308 0
-4.61538 -6.92308 0
-3.84615 -6.92308 0
-3.07692 -6.92308 0
-2.30769 -6.92308 0
-1.53846 -6.92308 0
-0.769231 -6.92308 0
5.55112e-016 -6.92308 0
0.769231 -6.92308 0
1.53846 -6.92308 0
2.30769 -6.92308 0
3.07692 -6.92308 0
3.84615 -6.92308 0
4.61538 -6.92308 0
5.38462 -6.92308 0
6.15385 -6.92308 0
6.92308 -6.92308 0
7.69231 -6.92308 0
8.46154 -6.92308 0
10 -6.92308 0
-10 -6.15385 0
-9.23077 -6.15385 0
-8.46154 -6.15385 0
-7.69231 -6.15385 0
-6.92308 -6.15385 0
-6.15385 -6.15385 0
-5.38462 -6.15385 0
-4.61538 -6.15385 0
-3.84615 -6.15385 0
-3.07692 -6.15385 0
-2.30769 -6.15385 0
-1.53846 -6.15385 0
-0.769231 -6.15385 0
5.55112e-016 -6.15385 0
0.769231 -6.15385 0
1.53846 -6.15385 0
2.30769 -6.15385 0
3.07692 -6.15385 0
3.84615 -6.15385 0
4.61538 -6.15385 0
5.38462 -6.15385 0
6.15385 -6.15385 0
6.92308 -6.15385 0
7.69231 -6.15385 0
8.46154 -6.15385 0
10 -6.15385 0
-10 -5.38462 0
-9.23077 -5.38462 0
-8.46154 -5.38462 0
-7.69231 -5.38462 0
-6.92308 -5.38462 0
-6.15385 -5.38462 0
-5.38462 -5.38462 0
-4.61538 -5.38462 0
-3.84615 -5.38462 0
-3.07692 -5.38462 0
-2.30769 -5.38462 0
-1.53846 -5.38462 0
-0.769231 -5.38462 0
5.55112e-016 -5.38462 0
0.769231 -5.38462 0
1.53846 -5.38462 0
2.30769 -5.38462 0
3.07692 -5.38462 0
3.84615 -5.38462 0
4.61538 -5.38462 0
5.38462 -5.38462 0
6.15385 -5.38462 0
6.92308 -5.38462 0
7.69231 -5.38462 0
8.46154 -5.38462 0
10 -5.38462 0
-10 -4.61538 0
-9.23077 -4.61538 0
-8.46154 -4.61538 0
-7.69231 -4.61538 0
-6.92308 -4.61538 0
-6.15385 -4.61538 0
-5.38462 -4.61538 0
-4.61538 -4.61538 0
-3.84615 -4.61538 0
-3.07692 -4.61538 0
-2.30769 -4.61538 0
-1.53846 -4.61538 0
-0.769231 -4.61538 0
5.55112e-016 -4.61538 0
0.769231 -4.61538 0
1.53846 -4.61538 0
2.30769 -4.61538 0
3.07692 -4.61538 0
3.84615 -4.61538 0
4.61538 -4.61538 0
5.38462 -4.61538 0
6.15385 -4.61538 0
6.92308 -4.61538 0
7.69231 -4.61538 0
8.46154 -4.61538 0
10 -4.61538 0
-10 -3.84615 0
-9.23077 -3.84615 0
-8.46154 -3.84615 0
-7.69231 -3.84615 0
-6.92308 -3.84615 0
-6.15385 -3.84615 0
-5.38462 -3.84615 0
-4.61538 -3.84615 0
-3.84615 -3.84615 0
-3.07692 -3.84615 0
-2.30769 -3.84615 0
-1.53846 -3.84615 0
-0.769231 -3.84615 0
5.55112e-016 -3.84615 0
0.769231 -3.84615 0
1.53846 -3.84615 0
2.30769 -3.84615 0
3.07692 -3.84615 0
3.84615 -3.84615 0
4.61538 -3.84615 0
5.38462 -3.84615 0
6.15385 -3.84615 0
6.92308 -3.84615 0
7.69231 -3.84615 0
8.46154 -3.84615 0
10 -3.84615 0
-10 -3.07692 0
-9.23077 -3.07692 0
-8.46154 -3.07692 0
-7.69231 -3.07692 0
-6.92308 -3.07692 0
-6.15385 -3.07692 0
-5.38462 -3.07692 0
-4.61538 -3.07692 0
-3.84615 -3.07692 0
-3.07692 -3.07692 0
-2.30769 -3.07692 0
-1.53846 -3.07692 0
-0.769231 -3.07692 0
5.55112e-016 -3.07692 0
0.769231 -3.07692 0
1.53846 -3.07692 0
2.30769 -3.07692 0
3.07692 -3.07692 0
3.84615 -3.07692 0
4.61538 -3.07692 0
5.38462 -3.07692 0
6.15385 -3.07692 0
6.92308 -3.07692 0
7.69231 -3.07692 0
8.46154 -3.07692 0
10 -3.07692 0
-10 -2.30769 0
-9.23077 -2.30769 0
-8.46154 -2.30769 0
-7.69231 -2.30769 0
-6.92308 -2.30769 0
-6.15385 -2.30769 0
-5.38462 -2.30769 0
-4.61538 -2.30769 0
-3.84615 -2.30769 0
-3.07692 -2.30769 0
-2.30769 -2.30769 0
-1.53846 -2.30769 0
-0.769231 -2.30769 0
5.55112e-016 -2.30769 0
0.769231 -2.30769 0
1.53846 -2.30769 0
2.30769 -2.30769 0
3.07692 -2.30769 0
3.84615 -2.30769 0
4.61538 -2.30769 0
5.38462 -2.30769 0
6.15385 -2.30769 0
6.92308 -2.30769 0
7.69231 -2.30769 0
8.46154 -2.30769 0
10 -2.30769 0
-10 -1.53846 0
-9.23077 -1.53846 0
-8.46154 -1.53846 0
-7.69231 -1.53846 0
-6.92308 -1.53846 0
-6.15385 -1.53846 0
-5.38462 -1.53846 0
-4.61538 -1.53846 0
-3.84615 -1.53846 0
-3.07692 -1.53846 0
-2.30769 -1.53846 0
-1.53846 -1.53846 0
-0.769231 -1.53846 0
5.55112e-016 -1.53846 0
0.769231 -1.53846 0
1.53846 -1.53846 0
2.30769 -1.53846 0
3.07692 -1.53846 0
3.84615 -1.53846 0
4.61538 -1.53846 0
5.38462 -1.53846 0
6.15385 -1.53846 0
6.92308 -1.53846 0
7.69231 -1.53846 0
8.46154 -1.53846 0
10 -1.53846 0
-10 -0.769231 0
-9.23077 -0.769231 0
-8.46154 -0.769231 0
-7.69231 -0.769231 0
-6.92308 -0.769231 0
-6.15385 -0.769231 0
-5.38462 -0.769231 0
-4.61538 -0.769231 0
-3.84615 -0.769231 0
-3.07692 -0.769231 0
-2.30769 -0.769231 0
-1.53846 -0.769231 0
-0.769231 -0.769231 0
5.55112e-016 -0.769231 0
0.769231 -0.769231 0
1.53846 -0.769231 0
2.30769 -0.769231 0
3.07692 -0.769231 0
3.84615 -0.769231 0
4.61538 -0.769231 0
5.38462 -0.769231 0
6.15385 -0.769231 0
6.92308 -0.769231 0
7.69231 -0.769231 0
8.46154 -0.769231 0
10 -0.769231 0
-10 5.55112e-016 0
-9.23077 5.55112e-016 0
-8.46154 5.55112e-016 0
-7.69231 5.55112e-016 0
-6.92308 5.55112e-016 0
-6.15385 5.55112e-016 0
-5.38462 5.55112e-016 0
-4.61538 5.55112e-016 0
-3.84615 5.55112e-016 0
-3.07692 5.55112e-016 0
-2.30769 5.55112e-016 0
-1.53846 5.55112e-016 0
-0.769231 5.55112e-016 0
5.55112e-016 5.55112e-016 0
0.769231 5.55112e-016 0
1.53846 5.55112e-016 0
2.30769 5.55112e-016 0
3.07692 5.55112e-016 0
3.84615 5.55112e-016 0
4.61538 5.55112e-016 0
5.38462 5.55112e-016 0
6.15385 5.55112e-016 0
6.92308 5.55112e-016 0
7.69231 5.55112e-016 0
8.46154 5.55112e-016 0
10 5.55112e-016 0
-10 0.769231 0
-9.23077 0.769231 0
-8.46154 0.769231 0
-7.69231 0.769231 0
-6.92308 0.769231 0
-6.15385 0.769231 0
-5.38462 0.769231 0
-4.61538 0.769231 0
-3.84615 0.769231 0
-3.07692 0.769231 0
-2.30769 0.769231 0
-1.53846 0.769231 0
-0.769231 0.769231 0
5.55112e-016 0.769231 0
0.769231 0.769231 0
1.53846 0.769231 0
2.30769 0.769231 0
3.07692 0.769231 0
3.84615 0.769231 0
4.61538 0.769231 0
5.38462 0.769231 0
6.15385 0.769231 0
6.92308 0.769231 0
7.69231 0.769231 0
8.46154 0.769231 0
10 0.769231 0
-10 1.53846 0
-9.23077 1.53846 0
-8.46154 1.53846 0
-7.69231 1.53846 0
-6.92308 1.53846 0
-6.15385 1.53846 0
-5.38462 1.53846 0
-4.61538 1.53846 0
-3.84615 1.53846 0
-3.07692 1.53846 0
-2.30769 1.53846 0
-1.53846 1.53846 0
-0.769231 1.53846 0
5.55112e-016 1.53846 0
0.769231 1.53846 0
1.53846 1.53846 0
2.30769 1.53846 0
3.07692 1.53846 0
3.84615 1.53846 0
4.61538 1.53846 0
5.38462 1.53846 0
6.15385 1.53846 0
6.92308 1.53846 0
7.69231 1.53846 0
8.46154 1.53846 0
10 1.53846 0
-10 2.30769 0
-9.23077 2.30769 0
-8.46154 2.30769 0
-7.69231 2.30769 0
-6.92308 2.30769 0
-6.15385 2.30769 0
-5.38462 2.30769 0
-4.61538 2.30769 0
-3.84615 2.30769 0
-3.07692 2.30769 0
-2.30769 2.30769 0
-1.53846 2.30769 0
-0.769231 2.30769 0
5.55112e-016 2.30769 0
0.769231 2.30769 0
1.53846 2.30769 0
2.30769 2.30769 0
3.07692 2.30769 0
3.84615 2.30769 0
4.61538 2.30769 0
5.38462 2.30769 0
6.15385 2.30769 0
6.92308 2.30769 0
7.69231 2.30769 0
8.46154 2.30769 0
10 2.30769 0
-10 3.07692 0
-9.23077 3.07692 0
-8.46154 3.07692 0
-7.69231 3.07692 0
-6.92308 3.07692 0
-6.15385 3.07692 0
-5.38462 3.07692 0
-4.61538 3.07692 0
-3.84615 3.07692 0
-3.07692 3.07692 0
-2.30769 3.07692 0
-1.53846 3.07692 0
-0.769231 3.07692 0
5.55112e-016 3.07692 0
0.769231 3.07692 0
1.53846 3.07692 0
2.30769 3.07692 0
3.07692 3.07692 0
3.84615 3.07692 0
4.61538 3.07692 0
5.38462 3.07692 0
6.15385 3.07692 0
6.92308 3.07692 0
7.69231 3.07692 0
8.46154 3.07692 0
10 3.07692 0
-10 3.84615 0
-9.23077 3.84615 0
-8.46154 3.84615 0
-7.69231 3.84615 0
-6.92308 3.84615 0
-6.15385 3.84615 0
-5.38462 3.84615 0
-4.61538 3.84615 0
-3.84615 3.84615 0
-3.07692 3.84615 0
-2.30769 3.84615 0
-1.53846 3.84615 0
-0.769231 3.84615 0
5.55112e-016 3.84615 0
0.769231 3.84615 0
1.53846 3.84615 0
2.30769 3.84615 0
3.07692 3.84615 0
3.84615 3.84615 0
4.61538 3.84615 0
5.38462 3.84615 0
6.15385 3.84615 0
6.92308 3.84615 0
7.69231 3.84615 0
8.46154 3.84615 0
10 3.84615 0
-10 4.61538 0
-9.23077 4.61538 0
-8.46154 4.61538 0
-7.69231 4.61538 0
-6.92308 4.61538 0
-6.15385 4.61538 0
-5.38462 4.61538 0
-4.61538 4.61538 0
-3.84615 4.61538 0
-3.07692 4.61538 0
-2.30769 4.61538 0
-1.53846 4.61538 0
-0.769231 4.61538 0
5.55112e-016 4.61538 0
0.769231 4.61538 0
1.53846 4.61538 0
2.30769 4.61538 0
3.07692 4.61538 0
3.84615 4.61538 0
4.61538 4.61538 0
5.38462 4.61538 0
6.15385 4.61538 0
6.92308 4.61538 0
7.69231 4.61538 0
8.46154 4.61538 0
10 4.61538 0
-10 5.38462 0
-9.23077 5.38462 0
-8.46154 5.38462 0
-7.69231 5.38462 0
-6.92308 5.38462 0
-6.15385 5.38462 0
-5.38462 5.38462 0
-4.61538 5.38462 0
-3.84615 5.38462 0
-3.07692 5.38462 0
-2.30769 5.38462 0
-1.53846 5.38462 0
-0.769231 5.38462 0
5.55112e-016 5.38462 0
0.769231 5.38462 0
1.53846 5.38462 0
2.30769 5.38462 0
3.07692 5.38462 0
3.84615 5.38462 0
4.61538 5.38462 0
5.38462 5.38462 0
6.15385 5.38462 0
6.92308 5.38462 0
7.69231 5.38462 0
8.46154 5.38462 0
10 5.38462 0
-10 6.15385 0
-9.23077 6.15385 0
-8.46154 6.15385 0
-7.69231 6.15385 0
-6.92308 6.15385 0
-6.15385 6.15385 0
-5.38462 6.15385 0
-4.61538 6.15385 0
-3.84615 6.15385 0
-3.07692 6.15385 0
-2.30769 6.15385 0
-1.53846 6.15385 0
-0.769231 6.15385 0
5.55112e-016 6.15385 0
0.769231 6.15385 0
1.53846 6.15385 0
2.30769 6.15385 0
3.07692 6.15385 0
3.84615 6.15385 0
4.61538 6.15385 0
5.38462 6.15385 0
6.15385 6.15385 0
6.92308 6.15385 0
7.69231 6.15385 0
8.46154 6.15385 0
10 6.15385 0
-10 6.92308 0
-9.23077 6.92308 0
-8.46154 6.92308 0
-7.69231 6.92308 0
-6.92308 6.92308 0
-6.15385 6.92308 0
-5.38462 6.92308 0
-4.61538 6.92308 0
-3.84615 6.92308 0
-3.07692 6.92308 0
-2.30769 6.92308 0
-1.53846 6.92308 0
-0.769231 6.92308 0
5.55112e-016 6.92308 0
0.769231 6.92308 0
1.53846 6.92308 0
2.30769 6.92308 0
3.07692 6.92308 0
3.84615 6.92308 0
4.61538 6.92308 0
5.38462 6.92308 0
6.15385 6.92308 0
6.92308 6.92308 0
7.69231 6.92308 0
8.46154 6.92308 0
10 6.92308 0
-10 7.69231 0
-9.23077 7.69231 0
-8.46154 7.69231 0
-7.69231 7.69231 0
-6.92308 7.69231 0
-6.15385 7.69231 0
-5.38462 7.69231 0
-4.61538 7.69231 0
-3.84615 7.69231 0
-3.07692 7.69231 0
-2.30769 7.69231 0
-1.53846 7.69231 0
-0.769231 7.69231 0
5.55112e-016 7.69231 0
0.769231 7.69231 0
1.53846 7.69231 0
2.30769 7.69231 0
3.07692 7.69231 0
3.84615 7.69231 0
4.61538 7.69231 0
5.38462 7.69231 0
6.15385 7.69231 0
6.92308 7.69231 0
7.69231 7.69231 0
8.46154 7.69231 0
10 7.69231 0
-10 8.46154 0
-9.23077 8.46154 0
-8.46154 8.46154 0
-7.69231 8.46154 0
-6.92308 8.46154 0
-6.15385 8.46154 0
-5.38462 8.46154 0
-4.61538 8.46154 0
-3.84615 8.46154 0
-3.07692 8.46154 0
-2.30769 8.46154 0
-1.53846 8.46154 0
-0.769231 8.46154 0
5.55112e-016 8.46154 0
0.769231 8.46154 0
1.53846 8.46154 0
2.30769 8.46154 0
3.07692 8.46154 0
3.84615 8.46154 0
4.61538 8.46154 0
5.38462 8.46154 0
6.15385 8.46154 0
6.92308 8.46154 0
7.69231 8.46154 0
8.46154 8.46154 0
10 8.46154 0
-10 10 0
-9.23077 10 0
-8.46154 10 0
-7.69231 10 0
-6.92308 10 0
-6.15385 10 0
-5.38462 10 0
-4.61538 10 0
-3.84615 10 0
-3.07692 10 0
-2.30769 10 0
-1.53846 10 0
-0.769231 10 0
5.55112e-016 10 0
0.769231 10 0
1.53846 10 0
2.30769 10 0
3.07692 10 0
3.84615 10 0
4.61538 10 0
5.38462 10 0
6.15385 10 0
6.92308 10 0
7.69231 10 0
8.46154 10 0
10 10 0

POINT_DATA 676
SCALARS h double 1
LOOkUP_TABLE default
0.0270208
0.0282705
0.0140459
0.00551258
0.00242721
0.00220611
0.00505923
0.0115111
0.0127476
0.00794528
0.00390475
0.00185414
0.00144022
0.0011223
0.000899005
0.000743793
0.00063119
0.00054362
0.000469477
0.000400205
0.000396328
0.000706998
0.0020385
0.00590226
0.00951699
0.0270208
0.0323013
0.032076
0.0159428
0.00588956
0.00203363
0.00142111
0.00307336
0.00668551
0.00803103
0.00547565
0.00284884
0.00136994
0.00103549
0.000799233
0.000627895
0.000502329
0.000405278
0.000327158
0.000260111
0.000192635
0.000155874
0.00035641
0.00143472
0.005268
0.0113882
0.0323013
0.0383068
0.0356674
0.0177316
0.00650342
0.00216858
0.0013407
0.00218701
0.00374172
0.00438228
0.00319751
0.00178088
0.000900935
0.00063151
0.000481217
0.000366209
0.000279885
0.000211629
0.000156304
0.000119823
9.56568e-005
7.12626e-005
0.000134863
0.000726742
0.00530566
0.0154651
0.0383068
0.0430942
0.037
0.0182635
0.00675512
0.00231477
0.00132189
0.00161956
0.00213571
0.00225667
0.00169072
0.000995358
0.000531791
0.000343609
0.000247565
0.000177089
0.00013
8.54694e-005
6.30811e-005
5.45196e-005
7.49739e-005
4.9149e-005
0.000225622
0.000928997
0.00558193
0.0201745
0.0430942
0.0427987
0.0344764
0.0169762
0.00642906
0.00232396
0.00126541
0.00121577
0.00127621
0.00117766
0.000865526
0.00052287
0.000287329
0.000171316
0.000111599
6.58109e-005
2.04706e-005
4.74619e-005
6.70867e-005
7.34158e-006
-2.76284e-006
-0.000176224
0.000156572
0.00134255
0.00725005
0.0254605
0.0427987
0.0382343
0.0291063
0.0144682
0.00578828
0.00231731
0.00127259
0.00100644
0.000861226
0.000685112
0.000471971
0.000279408
0.00014921
7.74853e-005
3.6049e-005
1.27943e-005
6.11946e-005
0.000132172
0.000185256
0.000210039
0.000126907
9.40147e-005
0.000943327
0.00425922
0.0132721
0.0284728
0.0382343
0.0324136
0.0234946
0.0121499
0.00547014
0.00261685
0.00155581
0.00109833
0.000795567
0.000545193
0.00033853
0.000186878
9.46249e-005
5.68331e-005
8.70011e-005
0.000255943
0.000697262
0.00148412
0.00255138
0.00368701
0.00460814
0.00544758
0.00727277
0.0116623
0.019939
0.0294723
0.0324136
0.0298262
0.0209889
0.0119343
0.00650608
0.00384187
0.00251659
0.00171485
0.00113786
0.000709681
0.000408439
0.000218388
0.000126014
0.000145792
0.000401443
0.00127333
0.00348587
0.00772773
0.0138272
0.0203198
0.0251383
0.0272123
0.0275503
0.0283164
0.0307357
0.0326437
0.0298262
0.0378973
0.0262134
0.0166564
0.0107041
0.0071602
0.00487739
0.00325439
0.00206685
0.00122967
0.000681772
0.000362908
0.000232949
0.000361823
0.00119761
0.00402933
0.0115162
0.0268825
0.0502564
0.0758573
0.0940682
0.0981941
0.0894492
0.0748977
0.0609671
0.049178
0.0378973
0.0696244
0.0468488
0.0310728
0.0210534
0.0143518
0.00960018
0.00615518
0.0037166
0.00208512
0.00107471
0.000510541
0.000257259
0.000360503
0.0021401
0.00870903
0.0271282
0.0683272
0.13637
0.216373
0.27661
0.290489
0.257631
0.20085
0.144769
0.100955
0.0696244
0.14624
0.0946309
0.0616079
0.0408987
0.0269093
0.0171305
0.0103456
0.0058242
0.00299603
0.00136326
0.000515562
0.000175408
0.000456112
0.00254739
0.0127897
0.0456711
0.127782
0.279267
0.477969
0.647743
0.707081
0.637614
0.492754
0.342388
0.22519
0.14624
0.287858
0.178379
0.111031
0.0700742
0.0434704
0.0258817
0.0144922
0.007468
0.00343307
0.00132211
0.000363986
0.000184999
0.000684642
0.00240896
0.0126442
0.0537569
0.171968
0.422157
0.799465
1.17882
1.37419
1.29701
1.02681
0.714331
0.460074
0.287858
0.481172
0.285931
0.168587
0.09986
0.0576705
0.0316975
0.0162111
0.0075002
0.00298638
0.000887473
5.12986e-005
0.000333939
0.000965196
0.00162919
0.00823527
0.0429273
0.161268
0.455782
0.978665
1.6091
2.05245
2.0759
1.7221
1.22586
0.788297
0.481172
0.653286
0.374641
0.208899
0.115432
0.0615363
0.0308681
0.0141824
0.00573556
0.00188546
0.000412055
0.000194183
0.000676422
0.00109959
0.000796632
0.00327774
0.0222965
0.101851
0.340383
0.849004
1.5938
2.27693
2.52366
2.23938
1.66142
1.08383
0.653286
0.711708
0.398547
0.211106
0.108736
0.0532702
0.0241625
0.00978708
0.00330668
0.000773906
0.000164585
0.000568077
0.00101397
0.000780296
0.000481306
0.000747677
0.00683752
0.0412586
0.170557
0.509529
1.11972
1.83421
2.27978
2.21231
1.74604
1.17691
0.711708
0.629276
0.350247
0.178197
0.0860337
0.0388107
0.0158714
0.00556476
0.00139899
-2.81905e-005
0.000335673
0.00093304
0.000912636
0.000666291
0.000393382
0.000233919
0.000988962
0.00935892
0.0538405
0.205619
0.54964
1.06129
1.51679
1.65093
1.42175
1.01458
0.629276
0.461879
0.262126
0.13044
0.0596885
0.025006
0.00930184
0.00285084
0.000562049
0.000245557
0.000828319
0.000991044
0.000879522
0.000609855
0.000340501
0.000179666
0.000227558
0.00118513
0.00903969
0.0510266
0.182097
0.435642
0.73926
0.929012
0.900704
0.703397
0.461879
0.28565
0.172445
0.0865866
0.0381978
0.0150581
0.00528524
0.00169206
0.000772676
0.000940772
0.00119337
0.00115599
0.000901476
0.000570074
0.000294807
0.000152038
0.000189827
0.000538272
0.00175073
0.0076345
0.0366117
0.120907
0.258729
0.388885
0.439305
0.391733
0.28565
0.146052
0.10165
0.0550625
0.0243813
0.00934474
0.00346421
0.00174348
0.00159112
0.00169969
0.00164483
0.00135446
0.000937406
0.000539976
0.000257212
0.000117688
0.000125422
0.000361842
0.00109417
0.00284262
0.00731311
0.0223036
0.0617955
0.116933
0.158509
0.168322
0.146052
0.0573099
0.0530822
0.0351145
0.0170993
0.00708896
0.00342577
0.00274372
0.00273958
0.00256905
0.0021481
0.00156605
0.000981354
0.0005202
0.000228644
8.51873e-005
4.73607e-005
0.000134399
0.000489638
0.0014482
0.00382249
0.00852075
0.0153097
0.0261412
0.0406759
0.0514569
0.0573099
0.0173359
0.0261033
0.022351
0.0131627
0.00705759
0.00504357
0.00481116
0.00444191
0.00367436
0.00274408
0.00183169
0.00107974
0.000554231
0.000243148
9.98223e-005
8.56947e-005
0.000129894
0.000274531
0.000690731
0.0018802
0.004808
0.00945888
0.013075
0.0120957
0.0117162
0.0173359
0.00925081
0.0176263
0.0149822
0.0104616
0.00791929
0.00799341
0.00863995
0.00777674
0.00573551
0.00378567
0.0023347
0.00135146
0.000760525
0.000454282
0.000360597
0.000360021
0.000404274
0.000496552
0.00068038
0.00114826
0.00250227
0.00570685
0.0106162
0.0126229
0.00628358
0.00925081
0.0133131
0.0181814
0.0124289
0.00863136
0.00796854
0.0100256
0.013117
0.0134413
0.00974753
0.00573133
0.00319282
0.00179583
0.00112765
0.000880485
0.000757053
0.000711175
0.000707187
0.00073381
0.000801716
0.00092134
0.00129119
0.00283121
0.00700863
0.0129306
0.0121111
0.0133131
0.018135
0.0216267
0.0123012
0.00718153
0.00630834
0.00849685
0.0136999
0.0180923
0.0145391
0.0081444
0.00411443
0.00218036
0.00150046
0.00124108
0.00104207
0.000920958
0.000849515
0.000814463
0.000812218
0.000825499
0.000933928
0.00170178
0.0044469
0.0100681
0.0119743
0.018135
0.0228547
0.0248389
0.0127615
0.005952
0.00396354
0.00480716
0.00936582
0.0168862
0.0159741
0.0091993
0.00444264
0.0021973
0.00164455
0.00131783
0.00107687
0.000916172
0.000808984
0.000736841
0.000685971
0.000639792
0.00066225
0.00112382
0.00299113
0.00761259
0.0103467
0.0228547
0.0270208
0.0282705
0.0140459
0.00551258
0.00242721
0.00220611
0.00505923
0.0115111
0.0127476
0.00794528
0.00390475
0.00185414
0.00144022
0.0011223
0.000899005
0.000743793
0.00063119
0.00054362
0.000469477
0.000400205
0.000396328
0.000706998
0.0020385
0.00590226
0.00951699
0.0270208

VECTORS u double
2.35285 36.0022 0.0
-8.05241 39.1954 0.0
-14.8066 39.4707 0.0
-18.5918 37.9087 0.0
-16.445 32.8747 0.0
-8.58617 27.3168 0.0
-4.74754 25.9103 0.0
-7.02478 27.4458 0.0
-10.63 30.0063 0.0
-11.8774 31.8967 0.0
-9.22884 31.8779 0.0
-1.9501 29.1965 0.0
3.40896 27.543 0.0
9.18515 25.8441 0.0
15.469 24.0276 0.0
22.1466 22.1337 0.0
29.0602 20.2232 0.0
36.0155 18.3661 0.0
42.7772 16.6264 0.0
49.0788 15.0523 0.0
54.3919 13.5168 0.0
45.9328 14.7924 0.0
26.9493 19.4125 0.0
9.98213 24.324 0.0
-4.35228 29.5994 0.0
2.35285 36.0022 0.0
-1.95772 38.7803 0.0
-12.1161 42.9443 0.0
-19.5769 43.3705 0.0
-24.9591 41.9122 0.0
-24.2 36.6073 0.0
-12.6983 28.6494 0.0
-8.22635 27.7074 0.0
-8.78915 28.5847 0.0
-11.216 30.661 0.0
-11.8916 32.3512 0.0
-8.97238 32.2715 0.0
-2.12392 29.7889 0.0
3.26211 28.0762 0.0
8.80304 26.4035 0.0
14.685 24.664 0.0
20.769 22.9048 0.0
26.9272 21.1759 0.0
33.0254 19.5285 0.0
39.0344 17.9489 0.0
44.2915 16.8163 0.0
51.7488 12.1657 0.0
40.0438 11.9851 0.0
20.7328 20.1593 0.0
6.2119 26.9659 0.0
-5.34548 33.3199 0.0
-1.95772 38.7803 0.0
-7.80236 41.994 0.0
-18.4025 46.0025 0.0
-26.9399 46.7939 0.0
-33.8131 45.5939 0.0
-34.89 40.8554 0.0
-23.3184 33.1658 0.0
-16.436 31.3902 0.0
-13.9047 30.9929 0.0
-14.0202 32.035 0.0
-13.695 33.2139 0.0
-10.5923 32.9334 0.0
-4.78312 30.8033 0.0
1.25373 28.8222 0.0
6.58292 27.159 0.0
12.1407 25.468 0.0
17.7935 23.7953 0.0
23.4656 22.1774 0.0
29.8674 19.9396 0.0
35.3413 18.8156 0.0
36.6916 20.7965 0.0
37.0596 21.6578 0.0
27.6442 22.3684 0.0
16.7059 22.0671 0.0
6.17926 28.2369 0.0
-5.5342 35.903 0.0
-7.80236 41.994 0.0
-15.1974 45.4168 0.0
-26.271 48.8734 0.0
-35.6428 49.7715 0.0
-43.3113 48.7167 0.0
-45.1187 44.5465 0.0
-34.6316 37.9524 0.0
-26.3092 35.4947 0.0
-21.6401 34.2494 0.0
-19.4224 34.2289 0.0
-17.9579 34.7156 0.0
-14.8471 34.1737 0.0
-10.0635 32.3524 0.0
-3.635 30.1843 0.0
2.14651 28.3269 0.0
7.88757 26.5784 0.0
14.3176 23.4686 0.0
25.3509 17.4748 0.0
18.1489 26.7391 0.0
19.6074 28.6828 0.0
8.96421 38.247 0.0
-12.8809 56.0255 0.0
43.0121 13.6065 0.0
26.2221 18.8488 0.0
7.99106 28.166 0.0
-7.37435 38.3492 0.0
-15.1974 45.4168 0.0
-24.8271 49.4303 0.0
-35.5039 51.9119 0.0
-45.1376 52.6332 0.0
-53.0324 51.6435 0.0
-55.1421 48.1223 0.0
-46.6255 42.8817 0.0
-38.0618 40.0849 0.0
-32.2914 38.3467 0.0
-28.4723 37.5112 0.0
-26.02 37.2752 0.0
-22.9609 36.4518 0.0
-18.6878 34.7662 0.0
-11.933 32.4441 0.0
-5.02404 30.2151 0.0
1.16437 29.7607 0.0
46.8793 -17.9255 0.0
12.7263 26.8831 0.0
-9.24767 49.3722 0.0
188.149 -69.1206 0.0
-296.51 187.11 0.0
23.0985 25.2971 0.0
100.05 -32.8861 0.0
53.4065 -0.610394 0.0
3.23254 32.1558 0.0
-18.5482 45.1988 0.0
-24.8271 49.4303 0.0
-36.3672 53.9415 0.0
-46.2303 55.43 0.0
-55.7906 55.8816 0.0
-63.7825 55.0465 0.0
-66.6114 52.4951 0.0
-61.3273 48.9055 0.0
-54.1012 46.1802 0.0
-48.1636 44.1089 0.0
-43.5608 42.6524 0.0
-40.2286 41.6938 0.0
-36.7198 40.4672 0.0
-31.6629 38.5452 0.0
-22.7762 35.2638 0.0
-6.39655 23.8861 0.0
49.7688 -24.4894 0.0
-34.0497 69.7082 0.0
-34.6226 71.6723 0.0
-27.6667 67.3243 0.0
-19.7976 63.0403 0.0
27.7426 32.644 0.0
134.507 -47.6414 0.0
2.60109 36.0429 0.0
-19.5578 47.149 0.0
-27.096 50.1814 0.0
-32.5743 52.3855 0.0
-36.3672 53.9415 0.0
-50.4649 59.4249 0.0
-59.5521 60.0915 0.0
-69.0216 60.3644 0.0
-77.1495 59.9016 0.0
-80.8809 58.4739 0.0
-79.0274 56.3471 0.0
-74.8007 54.1329 0.0
-70.3232 52.0547 0.0
-66.1111 50.2553 0.0
-62.2343 48.758 0.0
-57.6937 47.3515 0.0
-50.4861 46.6625 0.0
-39.7596 52.9453 0.0
-41.3497 71.6693 0.0
-48.0582 80.6125 0.0
-51.0678 82.8933 0.0
-52.5923 83.5012 0.0
-53.2491 83.2381 0.0
-53.3368 82.1311 0.0
-52.6304 79.4345 0.0
-50.6619 74.3969 0.0
-47.306 67.676 0.0
-45.7791 62.7541 0.0
-46.134 60.3616 0.0
-47.8211 59.4752 0.0
-50.4649 59.4249 0.0
-69.1878 67.122 0.0
-77.2479 66.9561 0.0
-85.7114 66.844 0.0
-92.1499 66.2041 0.0
-94.5927 64.7809 0.0
-93.7941 62.8488 0.0
-91.7023 60.7998 0.0
-89.2026 58.8215 0.0
-86.4264 56.9899 0.0
-83.0168 55.3103 0.0
-77.2581 53.8484 0.0
-63.9547 54.3799 0.0
-46.0929 63.979 0.0
-47.6864 77.3989 0.0
-52.8772 83.1175 0.0
-56.0692 85.0745 0.0
-58.7118 86.3559 0.0
-61.1638 87.299 0.0
-63.519 87.676 0.0
-65.8738 87.1044 0.0
-67.9988 85.0665 0.0
-69.0353 81.1817 0.0
-68.5032 76.0893 0.0
-67.2872 71.4737 0.0
-67.2736 68.5066 0.0
-69.1878 67.122 0.0
-90.5553 76.537 0.0
-96.0624 74.9633 0.0
-100.691 73.3496 0.0
-102.978 71.2922 0.0
-102.947 68.856 0.0
-101.687 66.3303 0.0
-99.9746 63.8793 0.0
-97.9745 61.5203 0.0
-95.4169 59.1428 0.0
-91.3005 56.3646 0.0
-82.3246 52.1669 0.0
-60.353 45.9276 0.0
-36.8474 49.0487 0.0
-45.7212 70.6909 0.0
-54.5101 81.8237 0.0
-58.974 85.2441 0.0
-62.6182 87.2898 0.0
-66.2151 89.0379 0.0
-69.9982 90.4032 0.0
-74.1929 91.1232 0.0
-78.8227 90.868 0.0
-83.342 89.3225 0.0
-86.7368 86.4205 0.0
-88.3984 82.6664 0.0
-89.2301 79.0839 0.0
-90.5553 76.537 0.0
-105.157 82.6847 0.0
-107.864 79.8052 0.0
-108.801 76.6591 0.0
-108.285 73.4101 0.0
-106.905 70.1962 0.0
-105.164 67.1196 0.0
-103.235 64.1887 0.0
-100.985 61.3188 0.0
-97.9091 58.2529 0.0
-92.6245 54.2493 0.0
-80.9763 47.0371 0.0
-49.9515 29.8376 0.0
-3.17232 10.9001 0.0
-38.9215 57.1583 0.0
-54.45 78.1193 0.0
-60.4994 83.7055 0.0
-65.0013 86.4499 0.0
-69.4557 88.7936 0.0
-74.2002 90.8207 0.0
-79.5035 92.3185 0.0
-85.483 93.0294 0.0
-91.7854 92.7255 0.0
-97.523 91.2904 0.0
-101.738 88.8349 0.0
-104.208 85.7367 0.0
-105.157 82.6847 0.0
-111.966 83.668 0.0
-113.19 80.3043 0.0
-112.461 76.5197 0.0
-110.843 72.7513 0.0
-108.89 69.1256 0.0
-106.813 65.6829 0.0
-104.594 62.4052 0.0
-102.003 59.1977 0.0
-98.4536 55.7863 0.0
-92.3168 51.3068 0.0
-77.2419 42.1781 0.0
-7.34545 2.26535 0.0
11.0852 -6.63691 0.0
-29.8514 39.0157 0.0
-53.433 72.6614 0.0
-60.8725 80.4049 0.0
-66.0844 83.7061 0.0
-71.2226 86.4713 0.0
-76.6678 88.9391 0.0
-82.6744 90.9058 0.0
-89.3646 92.1173 0.0
-96.444 92.3629 0.0
-103.098 91.5293 0.0
-108.295 89.6407 0.0
-111.404 86.8323 0.0
-111.966 83.668 0.0
-115.056 80.8084 0.0
-115.7 77.4774 0.0
-114.352 73.5766 0.0
-112.292 69.625 0.0
-110.029 65.7776 0.0
-107.685 62.0917 0.0
-105.181 58.5726 0.0
-102.241 55.1526 0.0
-98.2531 51.6074 0.0
-91.5918 47.1694 0.0
-72.6152 36.7849 0.0
47.7286 -28.4227 0.0
9.35584 -10.0193 0.0
-26.8838 27.5427 0.0
-52.2852 66.7662 0.0
-60.2108 75.4411 0.0
-65.9374 79.0348 0.0
-71.6416 82.0408 0.0
-77.6487 84.7715 0.0
-84.1649 87.0162 0.0
-91.2841 88.495 0.0
-98.7308 88.9767 0.0
-105.742 88.3464 0.0
-111.299 86.6283 0.0
-114.661 83.9157 0.0
-115.056 80.8084 0.0
-116.43 75.3848 0.0
-116.939 72.2974 0.0
-115.388 68.4982 0.0
-113.121 64.5096 0.0
-110.643 60.5311 0.0
-108.051 56.6543 0.0
-105.222 52.9082 0.0
-101.757 49.2149 0.0
-96.5681 45.1842 0.0
-85.8449 39.1433 0.0
164.542 -78.6117 0.0
20.2571 -15.0605 0.0
0.286166 -7.52333 0.0
-26.6533 18.9122 0.0
-50.4851 60.1098 0.0
-58.5013 69.1667 0.0
-64.5688 72.8181 0.0
-70.7319 75.8734 0.0
-77.2131 78.6895 0.0
-84.1511 81.0609 0.0
-91.5983 82.6811 0.0
-99.2881 83.2809 0.0
-106.513 82.7257 0.0
-112.312 81.0542 0.0
-115.933 78.3824 0.0
-116.43 75.3848 0.0
-116.575 68.7405 0.0
-117.236 65.9743 0.0
-115.724 62.3821 0.0
-113.386 58.4386 0.0
-110.752 54.3799 0.0
-107.903 50.321 0.0
-104.624 46.2829 0.0
-100.209 42.0857 0.0
-91.9281 36.646 0.0
-58.3698 20.5471 0.0
44.336 -23.0149 0.0
5.37223 -8.46319 0.0
-14.4186 -1.77947 0.0
-24.3693 8.59822 0.0
-46.4448 50.8018 0.0
-55.6502 62.142 0.0
-61.9847 65.8514 0.0
-68.4942 68.8286 0.0
-75.363 71.5756 0.0
-82.6625 73.9346 0.0
-90.3998 75.6062 0.0
-98.3098 76.2901 0.0
-105.74 75.8134 0.0
-111.8 74.2055 0.0
-115.756 71.6084 0.0
-116.575 68.7405 0.0
-115.458 62.3375 0.0
-116.525 59.9304 0.0
-115.271 56.6202 0.0
-112.99 52.7934 0.0
-110.248 48.7052 0.0
-107.124 44.4884 0.0
-103.323 40.1644 0.0
-97.7568 35.4641 0.0
-84.2827 28.0244 0.0
55.7172 -23.8413 0.0
8.09566 -6.40534 0.0
-15.2868 1.50271 0.0
-20.4123 2.49843 0.0
-19.8536 2.59027 0.0
-34.7256 31.0906 0.0
-50.8891 54.0516 0.0
-58.0149 58.7186 0.0
-64.8962 61.7863 0.0
-72.1 64.4621 0.0
-79.7052 66.7385 0.0
-87.6975 68.4001 0.0
-95.8163 69.1664 0.0
-103.458 68.8358 0.0
-109.805 67.4018 0.0
-114.154 65.0044 0.0
-115.458 62.3375 0.0
-112.912 57.1563 0.0
-114.628 55.1607 0.0
-113.869 52.2201 0.0
-111.774 48.5973 0.0
-108.901 44.5289 0.0
-105.228 40.1092 0.0