# vtk DataFile Version 2.0
Particulate Flow Equations Solution
ASCII
DATASET STRUCTURED_GRID
DIMENSIONS 26 26 1
POINTS 676 double
-10 -10 0
-9.23077 -10 0
-8.46154 -10 0
-7.69231 -10 0
-6.92308 -10 0
-6.15385 -10 0
-5.38462 -10 0
-4.61538 -10 0
-3.84615 -10 0
-3.07692 -10 0
-2.30769 -10 0
-1.53846 -10 0
-0.769231 -10 0
5.55112e-016 -10 0
0.769231 -10 0
1.53846 -10 0
2.30769 -10 0
3.07692 -10 0
3.84615 -10 0
4.61538 -10 0
5.38462 -10 0
6.15385 -10 0
6.92308 -10 0
7.69231 -10 0
8.46154 -10 0
10 -10 0
-10 -9.23077 0
-9.23077 -9.23077 0
-8.46154 -9.23077 0
-7.69231 -9.23077 0
-6.92308 -9.23077 0
-6.15385 -9.23077 0
-5.38462 -9.23077 0
-4.61538 -9.23077 0
-3.84615 -9.23077 0
-3.07692 -9.23077 0
-2.30769 -9.23077 0
-1.53846 -9.23077 0
-0.769231 -9.23077 0
5.55112e-016 -9.23077 0
0.769231 -9.23077 0
1.53846 -9.23077 0
2.30769 -9.23077 0
3.07692 -9.23077 0
3.84615 -9.23077 0
4.61538 -9.23077 0
5.38462 -9.23077 0
6.15385 -9.23077 0
6.92308 -9.23077 0
7.69231 -9.23077 0
8.46154 -9.23077 0
10 -9.23077 0
-10 -8.46154 0
-9.23077 -8.46154 0
-8.46154 -8.46154 0
-7.69231 -8.46154 0
-6.92308 -8.46154 0
-6.15385 -8.46154 0
-5.38462 -8.46154 0
-4.61538 -8.46154 0
-3.84615 -8.46154 0
-3.07692 -8.46154 0
-2.30769 -8.46154 0
-1.53846 -8.46154 0
-0.769231 -8.46154 0
5.55112e-016 -8.46154 0
0.769231 -8.46154 0
1.53846 -8.46154 0
2.30769 -8.46154 0
3.07692 -8.46154 0
3.84615 -8.46154 0
4.61538 -8.46154 0
5.38462 -8.46154 0
6.15385 -8.46154 0
6.92308 -8.46154 0
7.69231 -8.46154 0
8.46154 -8.46154 0
10 -8.46154 0
-10 -7.69231 0
-9.23077 -7.69231 0
-8.46154 -7.69231 0
-7.69231 -7.69231 0
-6.92308 -7.69231 0
-6.15385 -7.69231 0
-5.38462 -7.69231 0
-4.61538 -7.69231 0
-3.84615 -7.69231 0
-3.07692 -7.69231 0
-2.30769 -7.69231 0
-1.53846 -7.69231 0
-0.769231 -7.69231 0
5.55112e-016 -7.69231 0
0.769231 -7.69231 0
1.53846 -7.69231 0
2.30769 -7.69231 0
3.07692 -7.69231 0
3.84615 -7.69231 0
4.61538 -7.69231 0
5.38462 -7.69231 0
6.15385 -7.69231 0
6.92308 -7.69231 0
7.69231 -7.69231 0
8.46154 -7.69231 0
10 -7.69231 0
-10 -6.92308 0
-9.23077 -6.92308 0
-8.46154 -6.92308 0
-7.69231 -6.92308 0
-6.92308 -6.92308 0
-6.15385 -6.92308 0
-5.38462 -6.92308 0
-4.61538 -6.92308 0
-3.84615 -6.92308 0
-3.07692 -6.92308 0
-2.30769 -6.92308 0
-1.53846 -6.92308 0
-0.769231 -6.92308 0
5.55112e-016 -6.92308 0
0.769231 -6.92308 0
1.53846 -6.92308 0
2.30769 -6.92308 0
3.07692 -6.92308 0
3.84615 -6.92308 0
4.61538 -6.92308 0
5.38462 -6.92308 0
6.15385 -6.92308 0
6.92308 -6.92308 0
7.69231 -6.92308 0
8.46154 -6.92308 0
10 -6.92308 0
-10 -6.15385 0
-9.23077 -6.15385 0
-8.46154 -6.15385 0
-7.69231 -6.15385 0
-6.92308 -6.15385 0
-6.15385 -6.15385 0
-5.38462 -6.15385 0
-4.61538 -6.15385 0
-3.84615 -6.15385 0
-3.07692 -6.15385 0
-2.30769 -6.15385 0
-1.53846 -6.15385 0
-0.769231 -6.15385 0
5.55112e-016 -6.15385 0
0.769231 -6.15385 0
1.53846 -6.15385 0
2.30769 -6.15385 0
3.07692 -6.15385 0
3.84615 -6.15385 0
4.61538 -6.15385 0
5.38462 -6.15385 0
6.15385 -6.15385 0
6.92308 -6.15385 0
7.69231 -6.15385 0
8.46154 -6.15385 0
10 -6.15385 0
-10 -5.38462 0
-9.23077 -5.38462 0
-8.46154 -5.38462 0
-7.69231 -5.38462 0
-6.92308 -5.38462 0
-6.15385 -5.38462 0
-5.38462 -5.38462 0
-4.61538 -5.38462 0
-3.84615 -5.38462 0
-3.07692 -5.38462 0
-2.30769 -5.38462 0
-1.53846 -5.38462 0
-0.769231 -5.38462 0
5.55112e-016 -5.38462 0
0.769231 -5.38462 0
1.53846 -5.38462 0
2.30769 -5.38462 0
3.07692 -5.38462 0
3.84615 -5.38462 0
4.61538 -5.38462 0
5.38462 -5.38462 0
6.15385 -5.38462 0
6.92308 -5.38462 0
7.69231 -5.38462 0
8.46154 -5.38462 0
10 -5.38462 0
-10 -4.61538 0
-9.23077 -4.61538 0
-8.46154 -4.61538 0
-7.69231 -4.61538 0
-6.92308 -4.61538 0
-6.15385 -4.61538 0
-5.38462 -4.61538 0
-4.61538 -4.61538 0
-3.84615 -4.61538 0
-3.07692 -4.61538 0
-2.30769 -4.61538 0
-1.53846 -4.61538 0
-0.769231 -4.61538 0
5.55112e-016 -4.61538 0
0.769231 -4.61538 0
1.53846 -4.61538 0
2.30769 -4.61538 0
3.07692 -4.61538 0
3.84615 -4.61538 0
4.61538 -4.61538 0
5.38462 -4.61538 0
6.15385 -4.61538 0
6.92308 -4.61538 0
7.69231 -4.61538 0
8.46154 -4.61538 0
10 -4.61538 0
-10 -3.84615 0
-9.23077 -3.84615 0
-8.46154 -3.84615 0
-7.69231 -3.84615 0
-6.92308 -3.84615 0
-6.15385 -3.84615 0
-5.38462 -3.84615 0
-4.61538 -3.84615 0
-3.84615 -3.84615 0
-3.07692 -3.84615 0
-2.30769 -3.84615 0
-1.53846 -3.84615 0
-0.769231 -3.84615 0
5.55112e-016 -3.84615 0
0.769231 -3.84615 0
1.53846 -3.84615 0
2.30769 -3.84615 0
3.07692 -3.84615 0
3.84615 -3.84615 0
4.61538 -3.84615 0
5.38462 -3.84615 0
6.15385 -3.84615 0
6.92308 -3.84615 0
7.69231 -3.84615 0
8.46154 -3.84615 0
10 -3.84615 0
-10 -3.07692 0
-9.23077 -3.07692 0
-8.46154 -3.07692 0
-7.69231 -3.07692 0
-6.92308 -3.07692 0
-6.15385 -3.07692 0
-5.38462 -3.07692 0
-4.61538 -3.07692 0
-3.84615 -3.07692 0
-3.07692 -3.07692 0
-2.30769 -3.07692 0
-1.53846 -3.07692 0
-0.769231 -3.07692 0
5.55112e-016 -3.07692 0
0.769231 -3.07692 0
1.53846 -3.07692 0
2.30769 -3.07692 0
3.07692 -3.07692 0
3.84615 -3.07692 0
4.61538 -3.07692 0
5.38462 -3.07692 0
6.15385 -3.07692 0
6.92308 -3.07692 0
7.69231 -3.07692 0
8.46154 -3.07692 0
10 -3.07692 0
-10 -2.30769 0
-9.23077 -2.30769 0
-8.46154 -2.30769 0
-7.69231 -2.30769 0
-6.92308 -2.30769 0
-6.15385 -2.30769 0
-5.38462 -2.30769 0
-4.61538 -2.30769 0
-3.84615 -2.30769 0
-3.07692 -2.30769 0
-2.30769 -2.30769 0
-1.53846 -2.30769 0
-0.769231 -2.30769 0
5.55112e-016 -2.30769 0
0.769231 -2.30769 0
1.53846 -2.30769 0
2.30769 -2.30769 0
3.07692 -2.30769 0
3.84615 -2.30769 0
4.61538 -2.30769 0
5.38462 -2.30769 0
6.15385 -2.30769 0
6.92308 -2.30769 0
7.69231 -2.30769 0
8.46154 -2.30769 0
10 -2.30769 0
-10 -1.53846 0
-9.23077 -1.53846 0
-8.46154 -1.53846 0
-7.69231 -1.53846 0
-6.92308 -1.53846 0
-6.15385 -1.53846 0
-5.38462 -1.53846 0
-4.61538 -1.53846 0
-3.84615 -1.53846 0
-3.07692 -1.53846 0
-2.30769 -1.53846 0
-1.53846 -1.53846 0
-0.769231 -1.53846 0
5.55112e-016 -1.53846 0
0.769231 -1.53846 0
1.53846 -1.53846 0
2.30769 -1.53846 0
3.07692 -1.53846 0
3.84615 -1.53846 0
4.61538 -1.53846 0
5.38462 -1.53846 0
6.15385 -1.53846 0
6.92308 -1.53846 0
7.69231 -1.53846 0
8.46154 -1.53846 0
10 -1.53846 0
-10 -0.769231 0
-9.23077 -0.769231 0
-8.46154 -0.769231 0
-7.69231 -0.769231 0
-6.92308 -0.769231 0
-6.15385 -0.769231 0
-5.38462 -0.769231 0
-4.61538 -0.769231 0
-3.84615 -0.769231 0
-3.07692 -0.769231 0
-2.30769 -0.769231 0
-1.53846 -0.769231 0
-0.769231 -0.769231 0
5.55112e-016 -0.769231 0
0.769231 -0.769231 0
1.53846 -0.769231 0
2.30769 -0.769231 0
3.07692 -0.769231 0
3.84615 -0.769231 0
4.61538 -0.769231 0
5.38462 -0.769231 0
6.15385 -0.769231 0
6.92308 -0.769231 0
7.69231 -0.769231 0
8.46154 -0.769231 0
10 -0.769231 0
-10 5.55112e-016 0
-9.23077 5.55112e-016 0
-8.46154 5.55112e-016 0
-7.69231 5.55112e-016 0
-6.92308 5.55112e-016 0
-6.15385 5.55112e-016 0
-5.38462 5.55112e-016 0
-4.61538 5.55112e-016 0
-3.84615 5.55112e-016 0
-3.07692 5.55112e-016 0
-2.30769 5.55112e-016 0
-1.53846 5.55112e-016 0
-0.769231 5.55112e-016 0
5.55112e-016 5.55112e-016 0
0.769231 5.55112e-016 0
1.53846 5.55112e-016 0
2.30769 5.55112e-016 0
3.07692 5.55112e-016 0
3.84615 5.55112e-016 0
4.61538 5.55112e-016 0
5.38462 5.55112e-016 0
6.15385 5.55112e-016 0
6.92308 5.55112e-016 0
7.69231 5.55112e-016 0
8.46154 5.55112e-016 0
10 5.55112e-016 0
-10 0.769231 0
-9.23077 0.769231 0
-8.46154 0.769231 0
-7.69231 0.769231 0
-6.92308 0.769231 0
-6.15385 0.769231 0
-5.38462 0.769231 0
-4.61538 0.769231 0
-3.84615 0.769231 0
-3.07692 0.769231 0
-2.30769 0.769231 0
-1.53846 0.769231 0
-0.769231 0.769231 0
5.55112e-016 0.769231 0
0.769231 0.769231 0
1.53846 0.769231 0
2.30769 0.769231 0
3.07692 0.769231 0
3.84615 0.769231 0
4.61538 0.769231 0
5.38462 0.769231 0
6.15385 0.769231 0
6.92308 0.769231 0
7.69231 0.769231 0
8.46154 0.769231 0
10 0.769231 0
-10 1.53846 0
-9.23077 1.53846 0
-8.46154 1.53846 0
-7.69231 1.53846 0
-6.92308 1.53846 0
-6.15385 1.53846 0
-5.38462 1.53846 0
-4.61538 1.53846 0
-3.84615 1.53846 0
-3.07692 1.53846 0
-2.30769 1.53846 0
-1.53846 1.53846 0
-0.769231 1.53846 0
5.55112e-016 1.53846 0
0.769231 1.53846 0
1.53846 1.53846 0
2.30769 1.53846 0
3.07692 1.53846 0
3.84615 1.53846 0
4.61538 1.53846 0
5.38462 1.53846 0
6.15385 1.53846 0
6.92308 1.53846 0
7.69231 1.53846 0
8.46154 1.53846 0
10 1.53846 0
-10 2.30769 0
-9.23077 2.30769 0
-8.46154 2.30769 0
-7.69231 2.30769 0
-6.92308 2.30769 0
-6.15385 2.30769 0
-5.38462 2.30769 0
-4.61538 2.30769 0
-3.84615 2.30769 0
-3.07692 2.30769 0
-2.30769 2.30769 0
-1.53846 2.30769 0
-0.769231 2.30769 0
5.55112e-016 2.30769 0
0.769231 2.30769 0
1.53846 2.30769 0
2.30769 2.30769 0
3.07692 2.30769 0
3.84615 2.30769 0
4.61538 2.30769 0
5.38462 2.30769 0
6.15385 2.30769 0
6.92308 2.30769 0
7.69231 2.30769 0
8.46154 2.30769 0
10 2.30769 0
-10 3.07692 0
-9.23077 3.07692 0
-8.46154 3.07692 0
-7.69231 3.07692 0
-6.92308 3.07692 0
-6.15385 3.07692 0
-5.38462 3.07692 0
-4.61538 3.07692 0
-3.84615 3.07692 0
-3.07692 3.07692 0
-2.30769 3.07692 0
-1.53846 3.07692 0
-0.769231 3.07692 0
5.55112e-016 3.07692 0
0.769231 3.07692 0
1.53846 3.07692 0
2.30769 3.07692 0
3.07692 3.07692 0
3.84615 3.07692 0
4.61538 3.07692 0
5.38462 3.07692 0
6.15385 3.07692 0
6.92308 3.07692 0
7.69231 3.07692 0
8.46154 3.07692 0
10 3.07692 0
-10 3.84615 0
-9.23077 3.84615 0
-8.46154 3.84615 0
-7.69231 3.84615 0
-6.92308 3.84615 0
-6.15385 3.84615 0
-5.38462 3.84615 0
-4.61538 3.84615 0
-3.84615 3.84615 0
-3.07692 3.84615 0
-2.30769 3.84615 0
-1.53846 3.84615 0
-0.769231 3.84615 0
5.55112e-016 3.84615 0
0.769231 3.84615 0
1.53846 3.84615 0
2.30769 3.84615 0
3.07692 3.84615 0
3.84615 3.84615 0
4.61538 3.84615 0
5.38462 3.84615 0
6.15385 3.84615 0
6.92308 3.84615 0
7.69231 3.84615 0
8.46154 3.84615 0
10 3.84615 0
-10 4.61538 0
-9.23077 4.61538 0
-8.46154 4.61538 0
-7.69231 4.61538 0
-6.92308 4.61538 0
-6.15385 4.61538 0
-5.38462 4.61538 0
-4.61538 4.61538 0
-3.84615 4.61538 0
-3.07692 4.61538 0
-2.30769 4.61538 0
-1.53846 4.61538 0
-0.769231 4.61538 0
5.55112e-016 4.61538 0
0.769231 4.61538 0
1.53846 4.61538 0
2.30769 4.61538 0
3.07692 4.61538 0
3.84615 4.61538 0
4.61538 4.61538 0
5.38462 4.61538 0
6.15385 4.61538 0
6.92308 4.61538 0
7.69231 4.61538 0
8.46154 4.61538 0
10 4.61538 0
-10 5.38462 0
-9.23077 5.38462 0
-8.46154 5.38462 0
-7.69231 5.38462 0
-6.92308 5.38462 0
-6.15385 5.38462 0
-5.38462 5.38462 0
-4.61538 5.38462 0
-3.84615 5.38462 0
-3.07692 5.38462 0
-2.30769 5.38462 0
-1.53846 5.38462 0
-0.769231 5.38462 0
5.55112e-016 5.38462 0
0.769231 5.38462 0
1.53846 5.38462 0
2.30769 5.38462 0
3.07692 5.38462 0
3.84615 5.38462 0
4.61538 5.38462 0
5.38462 5.38462 0
6.15385 5.38462 0
6.92308 5.38462 0
7.69231 5.38462 0
8.46154 5.38462 0
10 5.38462 0
-10 6.15385 0
-9.23077 6.15385 0
-8.46154 6.15385 0
-7.69231 6.15385 0
-6.92308 6.15385 0
-6.15385 6.15385 0
-5.38462 6.15385 0
-4.61538 6.15385 0
-3.84615 6.15385 0
-3.07692 6.15385 0
-2.30769 6.15385 0
-1.53846 6.15385 0
-0.769231 6.15385 0
5.55112e-016 6.15385 0
0.769231 6.15385 0
1.53846 6.15385 0
2.30769 6.15385 0
3.07692 6.15385 0
3.84615 6.15385 0
4.61538 6.15385 0
5.38462 6.15385 0
6.15385 6.15385 0
6.92308 6.15385 0
7.69231 6.15385 0
8.46154 6.15385 0
10 6.15385 0
-10 6.92308 0
-9.23077 6.92308 0
-8.46154 6.92308 0
-7.69231 6.92308 0
-6.92308 6.92308 0
-6.15385 6.92308 0
-5.38462 6.92308 0
-4.61538 6.92308 0
-3.84615 6.92308 0
-3.07692 6.92308 0
-2.30769 6.92308 0
-1.53846 6.92308 0
-0.769231 6.92308 0
5.55112e-016 6.92308 0
0.769231 6.92308 0
1.53846 6.92308 0
2.30769 6.92308 0
3.07692 6.92308 0
3.84615 6.92308 0
4.61538 6.92308 0
5.38462 6.92308 0
6.15385 6.92308 0
6.92308 6.92308 0
7.69231 6.92308 0
8.46154 6.92308 0
10 6.92308 0
-10 7.69231 0
-9.23077 7.69231 0
-8.46154 7.69231 0
-7.69231 7.69231 0
-6.92308 7.69231 0
-6.15385 7.69231 0
-5.38462 7.69231 0
-4.61538 7.69231 0
-3.84615 7.69231 0
-3.07692 7.69231 0
-2.30769 7.69231 0
-1.53846 7.69231 0
-0.769231 7.69231 0
5.55112e-016 7.69231 0
0.769231 7.69231 0
1.53846 7.69231 0
2.30769 7.69231 0
3.07692 7.69231 0
3.84615 7.69231 0
4.61538 7.69231 0
5.38462 7.69231 0
6.15385 7.69231 0
6.92308 7.69231 0
7.69231 7.69231 0
8.46154 7.69231 0
10 7.69231 0
-10 8.46154 0
-9.23077 8.46154 0
-8.46154 8.46154 0
-7.69231 8.46154 0
-6.92308 8.46154 0
-6.15385 8.46154 0
-5.38462 8.46154 0
-4.61538 8.46154 0
-3.84615 8.46154 0
-3.07692 8.46154 0
-2.30769 8.46154 0
-1.53846 8.46154 0
-0.769231 8.46154 0
5.55112e-016 8.46154 0
0.769231 8.46154 0
1.53846 8.46154 0
2.30769 8.46154 0
3.07692 8.46154 0
3.84615 8.46154 0
4.61538 8.46154 0
5.38462 8.46154 0
6.15385 8.46154 0
6.92308 8.46154 0
7.69231 8.46154 0
8.46154 8.46154 0
10 8.46154 0
-10 10 0
-9.23077 10 0
-8.46154 10 0
-7.69231 10 0
-6.92308 10 0
-6.15385 10 0
-5.38462 10 0
-4.61538 10 0
-3.84615 10 0
-3.07692 10 0
-2.30769 10 0
-1.53846 10 0
-0.769231 10 0
5.55112e-016 10 0
0.769231 10 0
1.53846 10 0
2.30769 10 0
3.07692 10 0
3.84615 10 0
4.61538 10 0
5.38462 10 0
6.15385 10 0
6.92308 10 0
7.69231 10 0
8.46154 10 0
10 10 0

POINT_DATA 676
SCALARS h double 1
LOOkUP_TABLE default
0.183468
0.180673
0.171418
0.15764
0.141552
0.124931
0.108976
0.0943629
0.0813949
0.0701465
0.0605809
0.0526326
0.0462662
0.0415279
0.0386013
0.0378725
0.0399924
0.0458777
0.0565414
0.0726508
0.0938827
0.118428
0.143062
0.163974
0.177945
0.183468
0.197513
0.20112
0.19577
0.183352
0.166481
0.147661
0.128787
0.111064
0.0951229
0.0811951
0.0692854
0.0592963
0.0511163
0.0446842
0.0400472
0.0374284
0.0373082
0.0404999
0.0481348
0.0614101
0.0809836
0.106199
0.134536
0.162054
0.184119
0.197513
0.20171
0.213945
0.215278
0.20688
0.191292
0.171574
0.150409
0.129728
0.11069
0.0938416
0.0793307
0.0670851
0.0569469
0.0487628
0.0424507
0.0380653
0.035877
0.036472
0.0408396
0.0503303
0.0663007
0.0893225
0.1183
0.149939
0.179403
0.20171
0.193271
0.215094
0.225523
0.224132
0.212687
0.194305
0.1723
0.149426
0.127571
0.107799
0.0905527
0.0758887
0.0636622
0.0536627
0.0457034
0.0396897
0.0356904
0.0340306
0.0354088
0.0409946
0.0523421
0.0709109
0.0970726
0.129169
0.163045
0.193271
0.172296
0.202348
0.222705
0.230741
0.226546
0.212476
0.191983
0.168494
0.144722
0.12244
0.102583
0.0854818
0.071106
0.0592509
0.0496667
0.0421451
0.0365885
0.0330869
0.0320236
0.0342086
0.0409755
0.0540314
0.0748265
0.103416
0.137466
0.172296
0.142198
0.176776
0.205427
0.223511
0.228867
0.22217
0.206169
0.184465
0.160443
0.136668
0.11474
0.0954477
0.0790149
0.0653402
0.0541764
0.045251
0.0383479
0.0333761
0.0304518
0.0300149
0.0329715
0.0407751
0.0551946
0.0775484
0.107482
0.142198
0.108816
0.142931
0.175874
0.202072
0.217323
0.220062
0.211425
0.194366
0.17245
0.148872
0.125962
0.105116
0.0869721
0.0716627
0.0590364
0.0488238
0.0407472
0.0345957
0.0302934
0.0279848
0.0281571
0.0317831
0.0403682
0.0556421
0.0786865
0.108816
0.0781571
0.107353
0.139533
0.169683
0.192642
0.204841
0.205285
0.195429
0.178242
0.157078
0.134829
0.113533
0.0943686
0.0778366
0.0639973
0.0526724
0.0435904
0.0364837
0.0311582
0.0275597
0.0258601
0.0265797
0.0307177
0.0397591
0.0552947
0.0781571
0.054233
0.0760734
0.103247
0.13243
0.158933
0.178234
0.18746
0.186114
0.175806
0.15935
0.139755
0.119533
0.10041
0.0833494
0.0687362
0.056582
0.0467015
0.0388377
0.0327465
0.0282602
0.0253507
0.0242144
0.0253869
0.029852
0.0390013
0.054233
0.0381954
0.0525904
0.0726585
0.0970026
0.122449
0.14485
0.160431
0.167005
0.164458
0.154406
0.13937
0.121934
0.1042
0.087582
0.0728518
0.0602991
0.0499081
0.0415038
0.0348566
0.0297558
0.0260668
0.0237906
0.0231432
0.0246565
0.0292573
0.0381954
0.0289946
0.0374151
0.0505247
0.0683071
0.0893057
0.110671
0.128905
0.141009
0.145407
0.142244
0.133016
0.119868
0.104928
0.0898946
0.0758943
0.0635331
0.0530294
0.0443567
0.0373622
0.031853
0.0276584
0.0246813
0.0229522
0.0226999
0.0244335
0.0289946
0.0247349
0.0290688
0.0367162
0.0482533
0.0634489
0.0809148
0.0982189
0.112554
0.121642
0.124414
0.121148
0.113136
0.102118
0.0897769
0.0774403
0.0659838
0.0558766
0.0472857
0.0401871
0.0344583
0.029949
0.0265326
0.024151
0.0228619
0.0228986
0.0247349
0.0237246
0.0255166
0.0294568
0.0361663
0.0459623
0.0584983
0.0725333
0.086095
0.0970327
0.103695
0.105387
0.102428
0.0958592
0.0870243
0.0772024
0.0673973
0.058274
0.0501931
0.0432878
0.0375464
0.0328838
0.0291955
0.0264006
0.0244782
0.0235087
0.0237246
0.0248559
0.0251028
0.0267088
0.0301346
0.0357858
0.0438039
0.0537974
0.0647252
0.0750666
0.0832473
0.0881159
0.0892362
0.0868921
0.0818655
0.0751371
0.0676353
0.0600928
0.0530041
0.0466478
0.0411399
0.0364916
0.0326604
0.02959
0.0272427
0.0256313
0.0248559
0.0275541
0.0268039
0.0269344
0.0282391
0.0310317
0.0355713
0.0418834
0.0495937
0.0578831
0.0656381
0.0717555
0.0754556
0.0764571
0.0749614
0.0714982
0.0667286
0.0612851
0.0556799
0.0502755
0.0452967
0.040861
0.0370139
0.0337601
0.0310903
0.029007
0.0275541
0.0316155
0.030121
0.0292291
0.0291182
0.0299891
0.0320651
0.0355007
0.0402648
0.0460452
0.0522422
0.0580851
0.0628312
0.0659556
0.0672472
0.0667922
0.0648803
0.0618941
0.05822
0.0541971
0.0500969
0.0461215
0.0424116
0.0390583
0.0361163
0.0336215
0.0316155
0.037079
0.0349112
0.0331809
0.0320063
0.0315046
0.0318331
0.0331486
0.0355458
0.0389853
0.043244
0.0479232
0.0525249
0.0565652
0.0596734
0.0616387
0.0624031
0.0620244
0.0606387
0.0584312
0.0556165
0.0524192
0.0490544
0.045709
0.0425304
0.039626
0.037079
0.0441512
0.0412662
0.038709
0.0365823
0.0349571
0.0339379
0.0336483
0.0342064
0.0356852
0.038072
0.0412457
0.0449829
0.0489932
0.0529642
0.0565942
0.0596089
0.0617727
0.0629097
0.062934
0.0618731
0.0598693
0.0571508
0.0539842
0.0506266
0.0472929
0.0441512
0.053165
0.0494456
0.0459559
0.0428261
0.0401154
0.0378989
0.0362686
0.0353293
0.0351837
0.0359124
0.0375535
0.0400917
0.0434536
0.0475022
0.052023
0.0567063
0.0611484
0.0648932
0.0675192
0.0687395
0.0684719
0.0668464
0.0641512
0.0607463
0.056984
0.053165
0.0645446
0.0598365
0.0552278
0.0509256
0.0470145
0.0435672
0.0406566
0.0383668
0.0367954
0.0360487
0.0362357
0.0374616
0.0398194
0.0433656
0.0480729
0.0537602
0.060033
0.0662826
0.0717775
0.0758328
0.0779861
0.0781036
0.0763739
0.0732076
0.0691041
0.0645446
0.0787443
0.0729125
0.0669547
0.0612232
0.0558785
0.0510243
0.0467339
0.0430757
0.0401288
0.0379916
0.0367873
0.0366699
0.0378259
0.040461
0.0447502
0.0507402
0.0582201
0.0666243
0.0750488
0.0824223
0.087781
0.0905259
0.0905462
0.0881717
0.0840064
0.0787443
0.0961235
0.0891531
0.0816379
0.074173
0.06707
0.060516
0.0546151
0.0494331
0.0450291
0.0414767
0.0388805
0.0373916
0.0372241
0.0386617
0.0420338
0.0476298
0.0555375
0.0654445
0.0765105
0.0874319
0.0967312
0.103165
0.106059
0.105419
0.101814
0.0961235
0.11672
0.108885
0.0997494
0.0902768
0.0810446
0.0724074
0.0645533
0.0575728
0.0515135
0.0464183
0.0423537
0.0394343
0.0378499
0.0378916
0.039961
0.0445291
0.0519998
0.0624633
0.075417
0.0896239
0.103268
0.114414
0.121564
0.124059
0.122137
0.11672
0.139941
0.13204
0.121571
0.109993
0.0983047
0.0871596
0.0769226
0.067763
0.0597422
0.0528775
0.0471887
0.042733
0.0396405
0.0381516
0.0386544
0.0416945
0.0479076
0.0578094
0.07144
0.0879972
0.105712
0.122154
0.134905
0.14228
0.143752
0.139941
0.163188
0.156742
0.145988
0.132746
0.118605
0.104698
0.0917114
0.0799929
0.0696733
0.0607704
0.0532626
0.0471425
0.0424599
0.0393675
0.038171
0.0393785
0.0437089
0.0519827
0.064812
0.0821092
0.10264
0.123964
0.142965
0.156745
0.163591
0.163188
0.183468
0.180673
0.171418
0.15764
0.141552
0.124931
0.108976
0.0943629
0.0813949
0.0701465
0.0605809
0.0526326
0.0462662
0.0415279
0.0386013
0.0378725
0.0399924
0.0458777
0.0565414
0.0726508
0.0938827
0.118428
0.143062
0.163974
0.177945
0.183468

VECTORS u double
-183.986 174.189 0.0
-184.806 174.599 0.0
-185.441 174.725 0.0
-185.953 174.572 0.0
-186.353 174.149 0.0
-186.639 173.478 0.0
-186.804 172.591 0.0
-186.836 171.527 0.0
-186.724 170.322 0.0
-186.456 169.014 0.0
-186.019 167.636 0.0
-185.401 166.226 0.0
-184.587 164.831 0.0
-183.572 163.52 0.0
-182.375 162.417 0.0
-181.08 161.711 0.0
-179.874 161.632 0.0
-179.017 162.319 0.0
-178.703 163.691 0.0
-178.943 165.47 0.0
-179.601 167.358 0.0
-180.5 169.142 0.0
-181.495 170.732 0.0
-182.472 172.055 0.0
-183.367 173.245 0.0
-183.986 174.189 0.0
-184.184 174.206 0.0
-185.031 174.906 0.0
-185.754 175.021 0.0
-186.372 174.887 0.0
-186.875 174.487 0.0
-187.253 173.833 0.0
-187.493 172.955 0.0
-187.587 171.888 0.0
-187.524 170.672 0.0
-187.296 169.344 0.0
-186.893 167.941 0.0
-186.308 166.497 0.0
-185.528 165.048 0.0
-184.544 163.645 0.0
-183.353 162.371 0.0
-181.989 161.372 0.0
-180.577 160.873 0.0
-179.365 161.11 0.0
-178.648 162.169 0.0
-178.582 163.863 0.0
-179.098 165.852 0.0
-180.02 167.854 0.0
-181.139 169.701 0.0
-182.438 171.354 0.0
-183.583 172.795 0.0
-184.184 174.206 0.0
-184.478 173.557 0.0
-185.252 174.622 0.0
-185.965 174.912 0.0
-186.638 174.884 0.0
-187.219 174.561 0.0
-187.679 173.964 0.0
-187.998 173.124 0.0
-188.161 172.079 0.0
-188.157 170.871 0.0
-187.978 169.541 0.0
-187.618 168.126 0.0
-187.073 166.663 0.0
-186.337 165.185 0.0
-185.4 163.73 0.0
-184.253 162.353 0.0
-182.901 161.153 0.0
-181.401 160.304 0.0
-179.929 160.062 0.0
-178.798 160.657 0.0
-178.315 162.09 0.0
-178.572 164.079 0.0
-179.418 166.252 0.0
-180.666 168.368 0.0
-182.109 170.279 0.0
-183.669 172.003 0.0
-184.478 173.557 0.0
-184.273 172.432 0.0
-185.178 173.7 0.0
-185.963 174.292 0.0
-186.705 174.471 0.0
-187.364 174.298 0.0
-187.907 173.815 0.0
-188.308 173.06 0.0
-188.547 172.076 0.0
-188.612 170.908 0.0
-188.493 169.6 0.0
-188.185 168.197 0.0
-187.687 166.735 0.0
-186.997 165.25 0.0
-186.112 163.776 0.0
-185.023 162.351 0.0
-183.726 161.039 0.0
-182.237 159.955 0.0
-180.645 159.302 0.0
-179.191 159.362 0.0
-178.244 160.336 0.0
-178.091 162.122 0.0
-178.737 164.356 0.0
-179.947 166.66 0.0
-181.526 168.813 0.0
-183.16 170.718 0.0
-184.273 172.432 0.0
-183.534 170.875 0.0
-184.668 172.345 0.0
-185.626 173.231 0.0
-186.492 173.664 0.0
-187.256 173.7 0.0
-187.896 173.385 0.0
-188.39 172.763 0.0
-188.718 171.882 0.0
-188.863 170.79 0.0
-188.816 169.537 0.0
-188.573 168.172 0.0
-188.131 166.736 0.0
-187.494 165.268 0.0
-186.662 163.801 0.0
-185.634 162.37 0.0
-184.405 161.017 0.0
-182.977 159.811 0.0
-181.384 158.886 0.0
-179.761 158.472 0.0
-178.415 158.859 0.0
-177.754 160.191 0.0
-177.996 162.256 0.0
-179.03 164.632 0.0
-180.556 166.944 0.0
-182.271 169.025 0.0
-183.534 170.875 0.0
-182.398 168.984 0.0
-183.758 170.644 0.0
-184.923 171.797 0.0
-185.956 172.495 0.0
-186.858 172.772 0.0
-187.619 172.667 0.0
-188.222 172.223 0.0
-188.651 171.488 0.0
-188.891 170.514 0.0
-188.931 169.353 0.0
-188.765 168.057 0.0
-188.392 166.676 0.0
-187.816 165.251 0.0
-187.042 163.821 0.0
-186.074 162.417 0.0
-184.913 161.074 0.0
-183.56 159.836 0.0
-182.027 158.78 0.0
-180.374 158.051 0.0
-178.789 157.896 0.0
-177.64 158.589 0.0
-177.328 160.195 0.0
-177.959 162.408 0.0
-179.31 164.776 0.0
-180.989 166.987 0.0
-182.398 168.984 0.0
-180.903 166.844 0.0
-182.467 168.676 0.0
-183.849 170.063 0.0
-185.076 171.013 0.0
-186.146 171.541 0.0
-187.052 171.671 0.0
-187.785 171.44 0.0
-188.333 170.89 0.0
-188.682 170.073 0.0
-188.822 169.043 0.0
-188.748 167.854 0.0
-188.458 166.56 0.0
-187.955 165.21 0.0
-187.248 163.843 0.0
-186.343 162.498 0.0
-185.248 161.205 0.0
-183.968 159.997 0.0
-182.511 158.917 0.0
-180.903 158.045 0.0
-179.238 157.53 0.0
-177.756 157.614 0.0
-176.862 158.535 0.0
-176.907 160.276 0.0
-177.874 162.479 0.0
-179.417 164.73 0.0
-180.903 166.844 0.0
-179.114 164.583 0.0
-180.829 166.532 0.0
-182.415 168.108 0.0
-183.848 169.283 0.0
-185.107 170.051 0.0
-186.182 170.424 0.0
-187.065 170.425 0.0
-187.749 170.089 0.0
-188.224 169.464 0.0
-188.48 168.601 0.0
-188.512 167.556 0.0
-188.319 166.385 0.0
-187.904 165.141 0.0
-187.275 163.871 0.0
-186.441 162.614 0.0
-185.412 161.404 0.0
-184.2 160.27 0.0
-182.815 159.24 0.0
-181.274 158.353 0.0
-179.624 157.682 0.0
-177.993 157.367 0.0
-176.669 157.629 0.0
-176.063 158.656 0.0
-176.443 160.377 0.0
-177.66 162.453 0.0
-179.114 164.583 0.0
-177.142 162.421 0.0
-178.901 164.356 0.0
-180.648 166.041 0.0
-182.281 167.389 0.0
-183.741 168.367 0.0
-185.003 168.968 0.0
-186.057 169.203 0.0
-186.895 169.097 0.0
-187.511 168.688 0.0
-187.899 168.022 0.0
-188.053 167.155 0.0
-187.971 166.142 0.0
-187.658 165.039 0.0
-187.12 163.897 0.0
-186.366 162.76 0.0
-185.41 161.664 0.0
-184.265 160.637 0.0
-182.946 159.703 0.0
-181.471 158.882 0.0
-179.872 158.205 0.0
-178.218 157.729 0.0
-176.676 157.574 0.0
-175.56 157.925 0.0
-175.257 158.925 0.0
-175.92 160.505 0.0
-177.142 162.421 0.0
-175.211 160.737 0.0
-176.812 162.404 0.0
-178.614 164.034 0.0
-180.408 165.454 0.0
-182.063 166.578 0.0
-183.522 167.37 0.0
-184.761 167.821 0.0
-185.77 167.941 0.0
-186.544 167.757 0.0
-187.077 167.309 0.0
-187.366 166.645 0.0
-187.411 165.82 0.0
-187.213 164.891 0.0
-186.779 163.909 0.0
-186.118 162.923 0.0
-185.242 161.97 0.0
-184.169 161.081 0.0
-182.915 160.277 0.0
-181.504 159.572 0.0
-179.966 158.976 0.0
-178.351 158.506 0.0
-176.756 158.199 0.0
-175.37 158.145 0.0
-174.508 158.487 0.0
-174.488 159.352 0.0
-175.211 160.737 0.0
-173.666 159.98 0.0
-174.834 161.076 0.0
-176.476 162.378 0.0
-178.316 163.681 0.0
-180.12 164.83 0.0
-181.765 165.734 0.0
-183.194 166.352 0.0
-184.385 166.672 0.0
-185.329 166.705 0.0
-186.02 166.477 0.0
-186.457 166.031 0.0
-186.64 165.416 0.0
-186.569 164.686 0.0
-186.25 163.893 0.0
-185.693 163.087 0.0
-184.909 162.307 0.0
-183.915 161.583 0.0
-182.734 160.938 0.0
-181.392 160.381 0.0
-179.925 159.916 0.0
-178.379 159.539 0.0
-176.822 159.252 0.0
-175.366 159.069 0.0
-174.204 159.046 0.0
-173.608 159.299 0.0
-173.666 159.98 0.0
-172.792 160.348 0.0
-173.357 160.77 0.0
-174.558 161.477 0.0
-176.216 162.389 0.0
-178.038 163.352 0.0
-179.806 164.225 0.0
-181.401 164.915 0.0
-182.769 165.374 0.0
-183.887 165.588 0.0
-184.745 165.565 0.0
-185.338 165.334 0.0
-185.666 164.937 0.0
-185.732 164.422 0.0
-185.538 163.841 0.0
-185.094 163.239 0.0
-184.412 162.658 0.0
-183.51 162.127 0.0
-182.414 161.666 0.0
-181.156 161.282 0.0
-179.777 160.976 0.0
-178.324 160.736 0.0
-176.856 160.548 0.0
-175.448 160.395 0.0
-174.21 160.272 0.0
-173.305 160.215 0.0
-172.792 160.348 0.0
-172.599 161.584 0.0
-172.657 161.539 0.0
-173.274 161.631 0.0
-174.481 161.947 0.0
-176.08 162.469 0.0
-177.816 163.092 0.0
-179.493 163.693 0.0
-180.997 164.18 0.0
-182.27 164.501 0.0
-183.287 164.636 0.0
-184.036 164.596 0.0
-184.513 164.408 0.0
-184.718 164.112 0.0
-184.655 163.753 0.0
-184.332 163.374 0.0
-183.762 163.013 0.0
-182.967 162.697 0.0
-181.974 162.442 0.0
-180.822 162.253 0.0
-179.553 162.123 0.0
-178.22 162.039 0.0
-176.877 161.98 0.0
-175.581 161.92 0.0
-174.4 161.83 0.0
-173.418 161.7 0.0
-172.599 161.584 0.0
-172.89 163.251 0.0
-172.685 163.02 0.0
-172.837 162.735 0.0
-173.497 162.517 0.0
-174.639 162.473 0.0
-176.104 162.633 0.0
-177.687 162.934 0.0
-179.216 163.28 0.0
-180.582 163.585 0.0
-181.722 163.794 0.0
-182.606 163.889 0.0
-183.221 163.877 0.0
-183.561 163.784 0.0
-183.628 163.644 0.0
-183.43 163.495 0.0
-182.982 163.368 0.0
-182.308 163.284 0.0
-181.44 163.253 0.0
-180.419 163.272 0.0
-179.29 163.33 0.0
-178.105 163.409 0.0
-176.916 163.485 0.0
-175.77 163.531 0.0
-174.713 163.515 0.0
-173.788 163.415 0.0
-172.89 163.251 0.0
-173.477 165.038 0.0
-173.208 164.78 0.0
-173.124 164.367 0.0
-173.377 163.862 0.0
-174.023 163.378 0.0
-175.038 163.03 0.0
-176.309 162.877 0.0
-177.68 162.897 0.0
-179.006 163.02 0.0
-180.184 163.174 0.0
-181.149 163.312 0.0
-181.867 163.413 0.0
-182.32 163.483 0.0
-182.506 163.542 0.0
-182.43 163.616 0.0
-182.11 163.724 0.0
-181.572 163.879 0.0
-180.85 164.081 0.0
-179.986 164.316 0.0
-179.027 164.567 0.0
-178.019 164.809 0.0
-177.007 165.016 0.0
-176.035 165.163 0.0
-175.135 165.222 0.0
-174.329 165.175 0.0
-173.477 165.038 0.0
-174.254 166.794 0.0
-174.023 166.562 0.0
-173.875 166.14 0.0
-173.928 165.552 0.0
-174.23 164.858 0.0
-174.81 164.162 0.0
-175.655 163.577 0.0
-176.689 163.177 0.0
-177.801 162.973 0.0
-178.876 162.924 0.0
-179.82 162.979 0.0
-180.57 163.098 0.0
-181.091 163.264 0.0
-181.367 163.479 0.0
-181.399 163.749 0.0
-181.205 164.081 0.0
-180.811 164.471 0.0
-180.253 164.904 0.0
-179.57 165.355 0.0
-178.804 165.795 0.0
-177.996 166.195 0.0
-177.182 166.527 0.0
-176.397 166.767 0.0
-175.668 166.893 0.0
-175.006 166.894 0.0
-174.254 166.794 0.0
-175.17 168.456 0.0
-175.016 168.253 0.0
-174.891 167.856 0.0
-174.884 167.271 0.0
-175.019 166.526 0.0
-175.317 165.679 0.0
-175.792 164.824 0.0
-176.436 164.068 0.0