# vtk DataFile Version 2.0
Particulate Flow Equations Solution
ASCII
DATASET STRUCTURED_GRID
DIMENSIONS 26 26 1
POINTS 676 double
-10 -10 0
-9.23077 -10 0
-8.46154 -10 0
-7.69231 -10 0
-6.92308 -10 0
-6.15385 -10 0
-5.38462 -10 0
-4.61538 -10 0
-3.84615 -10 0
-3.07692 -10 0
-2.30769 -10 0
-1.53846 -10 0
-0.769231 -10 0
5.55112e-016 -10 0
0.769231 -10 0
1.53846 -10 0
2.30769 -10 0
3.07692 -10 0
3.84615 -10 0
4.61538 -10 0
5.38462 -10 0
6.15385 -10 0
6.92308 -10 0
7.69231 -10 0
8.46154 -10 0
10 -10 0
-10 -9.23077 0
-9.23077 -9.23077 0
-8.46154 -9.23077 0
-7.69231 -9.23077 0
-6.92308 -9.23077 0
-6.15385 -9.23077 0
-5.38462 -9.23077 0
-4.61538 -9.23077 0
-3.84615 -9.23077 0
-3.07692 -9.23077 0
-2.30769 -9.23077 0
-1.53846 -9.23077 0
-0.769231 -9.23077 0
5.55112e-016 -9.23077 0
0.769231 -9.23077 0
1.53846 -9.23077 0
2.30769 -9.23077 0
3.07692 -9.23077 0
3.84615 -9.23077 0
4.61538 -9.23077 0
5.38462 -9.23077 0
6.15385 -9.23077 0
6.92308 -9.23077 0
7.69231 -9.23077 0
8.46154 -9.23077 0
10 -9.23077 0
-10 -8.46154 0
-9.23077 -8.46154 0
-8.46154 -8.46154 0
-7.69231 -8.46154 0
-6.92308 -8.46154 0
-6.15385 -8.46154 0
-5.38462 -8.46154 0
-4.61538 -8.46154 0
-3.84615 -8.46154 0
-3.07692 -8.46154 0
-2.30769 -8.46154 0
-1.53846 -8.46154 0
-0.769231 -8.46154 0
5.55112e-016 -8.46154 0
0.769231 -8.46154 0
1.53846 -8.46154 0
2.30769 -8.46154 0
3.07692 -8.46154 0
3.84615 -8.46154 0
4.61538 -8.46154 0
5.38462 -8.46154 0
6.15385 -8.46154 0
6.92308 -8.46154 0
7.69231 -8.46154 0
8.46154 -8.46154 0
10 -8.46154 0
-10 -7.69231 0
-9.23077 -7.69231 0
-8.46154 -7.69231 0
-7.69231 -7.69231 0
-6.92308 -7.69231 0
-6.15385 -7.69231 0
-5.38462 -7.69231 0
-4.61538 -7.69231 0
-3.84615 -7.69231 0
-3.07692 -7.69231 0
-2.30769 -7.69231 0
-1.53846 -7.69231 0
-0.769231 -7.69231 0
5.55112e-016 -7.69231 0
0.769231 -7.69231 0
1.53846 -7.69231 0
2.30769 -7.69231 0
3.07692 -7.69231 0
3.84615 -7.69231 0
4.61538 -7.69231 0
5.38462 -7.69231 0
6.15385 -7.69231 0
6.92308 -7.69231 0
7.69231 -7.69231 0
8.46154 -7.69231 0
10 -7.69231 0
-10 -6.92308 0
-9.23077 -6.92308 0
-8.46154 -6.92308 0
-7.69231 -6.92308 0
-6.92308 -6.92308 0
-6.15385 -6.92308 0
-5.38462 -6.92308 0
-4.61538 -6.92308 0
-3.84615 -6.92308 0
-3.07692 -6.92308 0
-2.30769 -6.92308 0
-1.53846 -6.92308 0
-0.769231 -6.92308 0
5.55112e-016 -6.92308 0
0.769231 -6.92308 0
1.53846 -6.92308 0
2.30769 -6.92308 0
3.07692 -6.92308 0
3.84615 -6.92308 0
4.61538 -6.92308 0
5.38462 -6.92308 0
6.15385 -6.92308 0
6.92308 -6.92308 0
7.69231 -6.92308 0
8.46154 -6.92308 0
10 -6.92308 0
-10 -6.15385 0
-9.23077 -6.15385 0
-8.46154 -6.15385 0
-7.69231 -6.15385 0
-6.92308 -6.15385 0
-6.15385 -6.15385 0
-5.38462 -6.15385 0
-4.61538 -6.15385 0
-3.84615 -6.15385 0
-3.07692 -6.15385 0
-2.30769 -6.15385 0
-1.53846 -6.15385 0
-0.769231 -6.15385 0
5.55112e-016 -6.15385 0
0.769231 -6.15385 0
1.53846 -6.15385 0
2.30769 -6.15385 0
3.07692 -6.15385 0
3.84615 -6.15385 0
4.61538 -6.15385 0
5.38462 -6.15385 0
6.15385 -6.15385 0
6.92308 -6.15385 0
7.69231 -6.15385 0
8.46154 -6.15385 0
10 -6.15385 0
-10 -5.38462 0
-9.23077 -5.38462 0
-8.46154 -5.38462 0
-7.69231 -5.38462 0
-6.92308 -5.38462 0
-6.15385 -5.38462 0
-5.38462 -5.38462 0
-4.61538 -5.38462 0
-3.84615 -5.38462 0
-3.07692 -5.38462 0
-2.30769 -5.38462 0
-1.53846 -5.38462 0
-0.769231 -5.38462 0
5.55112e-016 -5.38462 0
0.769231 -5.38462 0
1.53846 -5.38462 0
2.30769 -5.38462 0
3.07692 -5.38462 0
3.84615 -5.38462 0
4.61538 -5.38462 0
5.38462 -5.38462 0
6.15385 -5.38462 0
6.92308 -5.38462 0
7.69231 -5.38462 0
8.46154 -5.38462 0
10 -5.38462 0
-10 -4.61538 0
-9.23077 -4.61538 0
-8.46154 -4.61538 0
-7.69231 -4.61538 0
-6.92308 -4.61538 0
-6.15385 -4.61538 0
-5.38462 -4.61538 0
-4.61538 -4.61538 0
-3.84615 -4.61538 0
-3.07692 -4.61538 0
-2.30769 -4.61538 0
-1.53846 -4.61538 0
-0.769231 -4.61538 0
5.55112e-016 -4.61538 0
0.769231 -4.61538 0
1.53846 -4.61538 0
2.30769 -4.61538 0
3.07692 -4.61538 0
3.84615 -4.61538 0
4.61538 -4.61538 0
5.38462 -4.61538 0
6.15385 -4.61538 0
6.92308 -4.61538 0
7.69231 -4.61538 0
8.46154 -4.61538 0
10 -4.61538 0
-10 -3.84615 0
-9.23077 -3.84615 0
-8.46154 -3.84615 0
-7.69231 -3.84615 0
-6.92308 -3.84615 0
-6.15385 -3.84615 0
-5.38462 -3.84615 0
-4.61538 -3.84615 0
-3.84615 -3.84615 0
-3.07692 -3.84615 0
-2.30769 -3.84615 0
-1.53846 -3.84615 0
-0.769231 -3.84615 0
5.55112e-016 -3.84615 0
0.769231 -3.84615 0
1.53846 -3.84615 0
2.30769 -3.84615 0
3.07692 -3.84615 0
3.84615 -3.84615 0
4.61538 -3.84615 0
5.38462 -3.84615 0
6.15385 -3.84615 0
6.92308 -3.84615 0
7.69231 -3.84615 0
8.46154 -3.84615 0
10 -3.84615 0
-10 -3.07692 0
-9.23077 -3.07692 0
-8.46154 -3.07692 0
-7.69231 -3.07692 0
-6.92308 -3.07692 0
-6.15385 -3.07692 0
-5.38462 -3.07692 0
-4.61538 -3.07692 0
-3.84615 -3.07692 0
-3.07692 -3.07692 0
-2.30769 -3.07692 0
-1.53846 -3.07692 0
-0.769231 -3.07692 0
5.55112e-016 -3.07692 0
0.769231 -3.07692 0
1.53846 -3.07692 0
2.30769 -3.07692 0
3.07692 -3.07692 0
3.84615 -3.07692 0
4.61538 -3.07692 0
5.38462 -3.07692 0
6.15385 -3.07692 0
6.92308 -3.07692 0
7.69231 -3.07692 0
8.46154 -3.07692 0
10 -3.07692 0
-10 -2.30769 0
-9.23077 -2.30769 0
-8.46154 -2.30769 0
-7.69231 -2.30769 0
-6.92308 -2.30769 0
-6.15385 -2.30769 0
-5.38462 -2.30769 0
-4.61538 -2.30769 0
-3.84615 -2.30769 0
-3.07692 -2.30769 0
-2.30769 -2.30769 0
-1.53846 -2.30769 0
-0.769231 -2.30769 0
5.55112e-016 -2.30769 0
0.769231 -2.30769 0
1.53846 -2.30769 0
2.30769 -2.30769 0
3.07692 -2.30769 0
3.84615 -2.30769 0
4.61538 -2.30769 0
5.38462 -2.30769 0
6.15385 -2.30769 0
6.92308 -2.30769 0
7.69231 -2.30769 0
8.46154 -2.30769 0
10 -2.30769 0
-10 -1.53846 0
-9.23077 -1.53846 0
-8.46154 -1.53846 0
-7.69231 -1.53846 0
-6.92308 -1.53846 0
-6.15385 -1.53846 0
-5.38462 -1.53846 0
-4.61538 -1.53846 0
-3.84615 -1.53846 0
-3.07692 -1.53846 0
-2.30769 -1.53846 0
-1.53846 -1.53846 0
-0.769231 -1.53846 0
5.55112e-016 -1.53846 0
0.769231 -1.53846 0
1.53846 -1.53846 0
2.30769 -1.53846 0
3.07692 -1.53846 0
3.84615 -1.53846 0
4.61538 -1.53846 0
5.38462 -1.53846 0
6.15385 -1.53846 0
6.92308 -1.53846 0
7.69231 -1.53846 0
8.46154 -1.53846 0
10 -1.53846 0
-10 -0.769231 0
-9.23077 -0.769231 0
-8.46154 -0.769231 0
-7.69231 -0.769231 0
-6.92308 -0.769231 0
-6.15385 -0.769231 0
-5.38462 -0.769231 0
-4.61538 -0.769231 0
-3.84615 -0.769231 0
-3.07692 -0.769231 0
-2.30769 -0.769231 0
-1.53846 -0.769231 0
-0.769231 -0.769231 0
5.55112e-016 -0.769231 0
0.769231 -0.769231 0
1.53846 -0.769231 0
2.30769 -0.769231 0
3.07692 -0.769231 0
3.84615 -0.769231 0
4.61538 -0.769231 0
5.38462 -0.769231 0
6.15385 -0.769231 0
6.92308 -0.769231 0
7.69231 -0.769231 0
8.46154 -0.769231 0
10 -0.769231 0
-10 5.55112e-016 0
-9.23077 5.55112e-016 0
-8.46154 5.55112e-016 0
-7.69231 5.55112e-016 0
-6.92308 5.55112e-016 0
-6.15385 5.55112e-016 0
-5.38462 5.55112e-016 0
-4.61538 5.55112e-016 0
-3.84615 5.55112e-016 0
-3.07692 5.55112e-016 0
-2.30769 5.55112e-016 0
-1.53846 5.55112e-016 0
-0.769231 5.55112e-016 0
5.55112e-016 5.55112e-016 0
0.769231 5.55112e-016 0
1.53846 5.55112e-016 0
2.30769 5.55112e-016 0
3.07692 5.55112e-016 0
3.84615 5.55112e-016 0
4.61538 5.55112e-016 0
5.38462 5.55112e-016 0
6.15385 5.55112e-016 0
6.92308 5.55112e-016 0
7.69231 5.55112e-016 0
8.46154 5.55112e-016 0
10 5.55112e-016 0
-10 0.769231 0
-9.23077 0.769231 0
-8.46154 0.769231 0
-7.69231 0.769231 0
-6.92308 0.769231 0
-6.15385 0.769231 0
-5.38462 0.769231 0
-4.61538 0.769231 0
-3.84615 0.769231 0
-3.07692 0.769231 0
-2.30769 0.769231 0
-1.53846 0.769231 0
-0.769231 0.769231 0
5.55112e-016 0.769231 0
0.769231 0.769231 0
1.53846 0.769231 0
2.30769 0.769231 0
3.07692 0.769231 0
3.84615 0.769231 0
4.61538 0.769231 0
5.38462 0.769231 0
6.15385 0.769231 0
6.92308 0.769231 0
7.69231 0.769231 0
8.46154 0.769231 0
10 0.769231 0
-10 1.53846 0
-9.23077 1.53846 0
-8.46154 1.53846 0
-7.69231 1.53846 0
-6.92308 1.53846 0
-6.15385 1.53846 0
-5.38462 1.53846 0
-4.61538 1.53846 0
-3.84615 1.53846 0
-3.07692 1.53846 0
-2.30769 1.53846 0
-1.53846 1.53846 0
-0.769231 1.53846 0
5.55112e-016 1.53846 0
0.769231 1.53846 0
1.53846 1.53846 0
2.30769 1.53846 0
3.07692 1.53846 0
3.84615 1.53846 0
4.61538 1.53846 0
5.38462 1.53846 0
6.15385 1.53846 0
6.92308 1.53846 0
7.69231 1.53846 0
8.46154 1.53846 0
10 1.53846 0
-10 2.30769 0
-9.23077 2.30769 0
-8.46154 2.30769 0
-7.69231 2.30769 0
-6.92308 2.30769 0
-6.15385 2.30769 0
-5.38462 2.30769 0
-4.61538 2.30769 0
-3.84615 2.30769 0
-3.07692 2.30769 0
-2.30769 2.30769 0
-1.53846 2.30769 0
-0.769231 2.30769 0
5.55112e-016 2.30769 0
0.769231 2.30769 0
1.53846 2.30769 0
2.30769 2.30769 0
3.07692 2.30769 0
3.84615 2.30769 0
4.61538 2.30769 0
5.38462 2.30769 0
6.15385 2.30769 0
6.92308 2.30769 0
7.69231 2.30769 0
8.46154 2.30769 0
10 2.30769 0
-10 3.07692 0
-9.23077 3.07692 0
-8.46154 3.07692 0
-7.69231 3.07692 0
-6.92308 3.07692 0
-6.15385 3.07692 0
-5.38462 3.07692 0
-4.61538 3.07692 0
-3.84615 3.07692 0
-3.07692 3.07692 0
-2.30769 3.07692 0
-1.53846 3.07692 0
-0.769231 3.07692 0
5.55112e-016 3.07692 0
0.769231 3.07692 0
1.53846 3.07692 0
2.30769 3.07692 0
3.07692 3.07692 0
3.84615 3.07692 0
4.61538 3.07692 0
5.38462 3.07692 0
6.15385 3.07692 0
6.92308 3.07692 0
7.69231 3.07692 0
8.46154 3.07692 0
10 3.07692 0
-10 3.84615 0
-9.23077 3.84615 0
-8.46154 3.84615 0
-7.69231 3.84615 0
-6.92308 3.84615 0
-6.15385 3.84615 0
-5.38462 3.84615 0
-4.61538 3.84615 0
-3.84615 3.84615 0
-3.07692 3.84615 0
-2.30769 3.84615 0
-1.53846 3.84615 0
-0.769231 3.84615 0
5.55112e-016 3.84615 0
0.769231 3.84615 0
1.53846 3.84615 0
2.30769 3.84615 0
3.07692 3.84615 0
3.84615 3.84615 0
4.61538 3.84615 0
5.38462 3.84615 0
6.15385 3.84615 0
6.92308 3.84615 0
7.69231 3.84615 0
8.46154 3.84615 0
10 3.84615 0
-10 4.61538 0
-9.23077 4.61538 0
-8.46154 4.61538 0
-7.69231 4.61538 0
-6.92308 4.61538 0
-6.15385 4.61538 0
-5.38462 4.61538 0
-4.61538 4.61538 0
-3.84615 4.61538 0
-3.07692 4.61538 0
-2.30769 4.61538 0
-1.53846 4.61538 0
-0.769231 4.61538 0
5.55112e-016 4.61538 0
0.769231 4.61538 0
1.53846 4.61538 0
2.30769 4.61538 0
3.07692 4.61538 0
3.84615 4.61538 0
4.61538 4.61538 0
5.38462 4.61538 0
6.15385 4.61538 0
6.92308 4.61538 0
7.69231 4.61538 0
8.46154 4.61538 0
10 4.61538 0
-10 5.38462 0
-9.23077 5.38462 0
-8.46154 5.38462 0
-7.69231 5.38462 0
-6.92308 5.38462 0
-6.15385 5.38462 0
-5.38462 5.38462 0
-4.61538 5.38462 0
-3.84615 5.38462 0
-3.07692 5.38462 0
-2.30769 5.38462 0
-1.53846 5.38462 0
-0.769231 5.38462 0
5.55112e-016 5.38462 0
0.769231 5.38462 0
1.53846 5.38462 0
2.30769 5.38462 0
3.07692 5.38462 0
3.84615 5.38462 0
4.61538 5.38462 0
5.38462 5.38462 0
6.15385 5.38462 0
6.92308 5.38462 0
7.69231 5.38462 0
8.46154 5.38462 0
10 5.38462 0
-10 6.15385 0
-9.23077 6.15385 0
-8.46154 6.15385 0
-7.69231 6.15385 0
-6.92308 6.15385 0
-6.15385 6.15385 0
-5.38462 6.15385 0
-4.61538 6.15385 0
-3.84615 6.15385 0
-3.07692 6.15385 0
-2.30769 6.15385 0
-1.53846 6.15385 0
-0.769231 6.15385 0
5.55112e-016 6.15385 0
0.769231 6.15385 0
1.53846 6.15385 0
2.30769 6.15385 0
3.07692 6.15385 0
3.84615 6.15385 0
4.61538 6.15385 0
5.38462 6.15385 0
6.15385 6.15385 0
6.92308 6.15385 0
7.69231 6.15385 0
8.46154 6.15385 0
10 6.15385 0
-10 6.92308 0
-9.23077 6.92308 0
-8.46154 6.92308 0
-7.69231 6.92308 0
-6.92308 6.92308 0
-6.15385 6.92308 0
-5.38462 6.92308 0
-4.61538 6.92308 0
-3.84615 6.92308 0
-3.07692 6.92308 0
-2.30769 6.92308 0
-1.53846 6.92308 0
-0.769231 6.92308 0
5.55112e-016 6.92308 0
0.769231 6.92308 0
1.53846 6.92308 0
2.30769 6.92308 0
3.07692 6.92308 0
3.84615 6.92308 0
4.61538 6.92308 0
5.38462 6.92308 0
6.15385 6.92308 0
6.92308 6.92308 0
7.69231 6.92308 0
8.46154 6.92308 0
10 6.92308 0
-10 7.69231 0
-9.23077 7.69231 0
-8.46154 7.69231 0
-7.69231 7.69231 0
-6.92308 7.69231 0
-6.15385 7.69231 0
-5.38462 7.69231 0
-4.61538 7.69231 0
-3.84615 7.69231 0
-3.07692 7.69231 0
-2.30769 7.69231 0
-1.53846 7.69231 0
-0.769231 7.69231 0
5.55112e-016 7.69231 0
0.769231 7.69231 0
1.53846 7.69231 0
2.30769 7.69231 0
3.07692 7.69231 0
3.84615 7.69231 0
4.61538 7.69231 0
5.38462 7.69231 0
6.15385 7.69231 0
6.92308 7.69231 0
7.69231 7.69231 0
8.46154 7.69231 0
10 7.69231 0
-10 8.46154 0
-9.23077 8.46154 0
-8.46154 8.46154 0
-7.69231 8.46154 0
-6.92308 8.46154 0
-6.15385 8.46154 0
-5.38462 8.46154 0
-4.61538 8.46154 0
-3.84615 8.46154 0
-3.07692 8.46154 0
-2.30769 8.46154 0
-1.53846 8.46154 0
-0.769231 8.46154 0
5.55112e-016 8.46154 0
0.769231 8.46154 0
1.53846 8.46154 0
2.30769 8.46154 0
3.07692 8.46154 0
3.84615 8.46154 0
4.61538 8.46154 0
5.38462 8.46154 0
6.15385 8.46154 0
6.92308 8.46154 0
7.69231 8.46154 0
8.46154 8.46154 0
10 8.46154 0
-10 10 0
-9.23077 10 0
-8.46154 10 0
-7.69231 10 0
-6.92308 10 0
-6.15385 10 0
-5.38462 10 0
-4.61538 10 0
-3.84615 10 0
-3.07692 10 0
-2.30769 10 0
-1.53846 10 0
-0.769231 10 0
5.55112e-016 10 0
0.769231 10 0
1.53846 10 0
2.30769 10 0
3.07692 10 0
3.84615 10 0
4.61538 10 0
5.38462 10 0
6.15385 10 0
6.92308 10 0
7.69231 10 0
8.46154 10 0
10 10 0

POINT_DATA 676
SCALARS h double 1
LOOkUP_TABLE default
0.0320685
0.0418733
0.0298361
0.0162477
0.00755601
0.00363337
0.00280099
0.00372094
0.00490453
0.00417664
0.00285254
0.00168947
0.00111576
0.000814252
0.000607476
0.000443376
0.00030937
0.000203572
0.000125226
7.18063e-005
4.22925e-005
7.66452e-005
0.000384021
0.00237011
0.00809984
0.0320685
0.0335676
0.0480684
0.0377692
0.0228744
0.0121492
0.00659982
0.00431733
0.00352169
0.00312815
0.00241628
0.00164928
0.00103265
0.00065117
0.000422672
0.000272271
0.000168362
9.80917e-005
5.34397e-005
2.7648e-005
1.29262e-005
2.20038e-005
9.53398e-005
0.000179336
0.00183098
0.00913153
0.0335676
0.0355756
0.0519446
0.043148
0.0281341
0.0164529
0.00959878
0.00594841
0.00393981
0.00271694
0.00183476
0.00118607
0.000730647
0.000431073
0.000244707
0.000131191
6.45217e-005
2.77271e-005
9.62263e-006
5.48016e-006
1.22974e-005
0.000103811
0.000198897
0.000555371
0.00110418
0.00689207
0.0355756
0.0430705
0.0570636
0.0491335
0.0344356
0.0220588
0.0138259
0.00871339
0.00555266
0.00358076
0.00230956
0.00146194
0.000888294
0.000505759
0.000264049
0.000122466
4.78524e-005
1.38293e-005
8.40581e-007
3.26998e-006
5.87364e-005
0.000286982
0.00095308
0.00264321
0.00618271
0.0170564
0.0430705
0.0795607
0.0865225
0.0743844
0.0556065
0.0386286
0.0258952
0.017077
0.0112091
0.00735825
0.00479371
0.00304195
0.00183612
0.00102745
0.000518019
0.000225718
7.84198e-005
1.79784e-005
1.21769e-005
0.000148571
0.000814376
0.00297271
0.00843726
0.0191496
0.035625
0.056924
0.0795607
0.19604
0.190275
0.161237
0.124379
0.0898806
0.0621065
0.0417331
0.0276207
0.018072
0.011595
0.00717274
0.00418972
0.00225849
0.00109251
0.000453512
0.000146773
3.13469e-005
6.44037e-005
0.000744547
0.00366675
0.0128497
0.0349414
0.074398
0.125302
0.171007
0.19604
0.485017
0.457905
0.387435
0.30216
0.220607
0.15288
0.102013
0.0662844
0.0420621
0.025885
0.0152303
0.00841799
0.00428504
0.00195899
0.000771446
0.00023962
5.71156e-005
0.000197267
0.00205903
0.00973097
0.0342944
0.0940294
0.200453
0.333333
0.441433
0.485017
1.03071
0.985928
0.844203
0.663409
0.484652
0.332992
0.217826
0.136976
0.0830343
0.0482639
0.0265923
0.013688
0.00647664
0.00276154
0.00102701
0.000310949
9.01195e-005
0.000399029
0.00360674
0.0171372
0.0621929
0.177179
0.39334
0.678059
0.922475
1.03071
1.73343
1.72192
1.51145
1.20192
0.877711
0.595287
0.379154
0.228773
0.131171
0.0711988
0.0362469
0.0170935
0.00736356
0.00285463
0.000985487
0.000318325
0.000161943
0.000590762
0.00428102
0.0207206
0.0781317
0.234702
0.555258
1.02245
1.47728
1.73343
2.18884
2.30536
2.10421
1.70784
1.25143
0.837729
0.517839
0.298072
0.160313
0.0803249
0.0371476
0.0156106
0.00581189
0.00184628
0.000534862
0.000540981
0.000604763
0.000755308
0.00352294
0.0174511
0.0685412
0.217313
0.552415
1.10525
1.73445
2.18884
2.01554
2.29216
2.20814
1.85024
1.37107
0.909745
0.546314
0.299357
0.150186
0.0687235
0.0282866
0.010131
0.00287401
0.000448926
0.000719548
0.000822311
0.000487779
0.000499608
0.00190313
0.0101464
0.0426182
0.142333
0.386647
0.843834
1.45779
2.01554
1.35278
1.68457
1.73459
1.51817
1.14961
0.762703
0.447892
0.234604
0.109881
0.0457005
0.0164607
0.00477851
0.000906456
0.000767219
0.00103189
0.00051058
0.000173568
0.000193045
0.000786229
0.0039988
0.0187727
0.0677337
0.195349
0.461371
0.881356
1.35278
0.677557
0.935529
1.03799
0.956594
0.747498
0.501413
0.291299
0.147483
0.0651071
0.024767
0.00782314
0.0019419
0.00087533
0.00128462
0.000881997
0.000362302
5.06631e-005
0.000135139
0.000720617
0.00198227
0.0065878
0.0238797
0.0734248
0.185765
0.3921
0.677557
0.257514
0.407456
0.490758
0.476473
0.385732
0.263962
0.153667
0.076362
0.032329
0.0115192
0.00344561
0.00126351
0.0013541
0.00119972
0.000706017
0.000268783
9.32213e-005
0.000280705
0.00096916
0.00222485
0.00426112
0.0085218
0.0214499
0.0554164
0.128161
0.257514
0.0704257
0.143269
0.192516
0.195473
0.162772
0.113715
0.0669546
0.033234
0.0139208
0.00504001
0.00196149
0.00147538
0.00140243
0.00101451
0.000531383
0.000197043
0.000124345
0.000405103
0.00124755
0.00282962
0.004903
0.00656615
0.00798604
0.0129965
0.0289032
0.0704257
0.0131518
0.0421855
0.0667415
0.0699866
0.0587057
0.0414239
0.0248509
0.012778
0.00585565
0.00280077
0.00189509
0.00166652
0.0013272
0.000836407
0.000396323
0.000149524
0.000147096
0.000494799
0.00145945
0.00329451
0.0056483
0.00711993
0.00644353
0.004591
0.0046603
0.0131518
0.00385403
0.014638
0.0233799
0.0245597
0.0197632
0.0138895
0.00887588
0.00544598
0.00354352
0.00267915
0.00224504
0.00180315
0.00124906
0.000703523
0.000306568
0.000119543
0.000156508
0.00053753
0.00156742
0.00351323
0.00597128
0.00742458
0.00640546
0.00354789
0.00119185
0.00385403
0.00306012
0.010064
0.0114033
0.0107516
0.00786266
0.00563541
0.0045244
0.00404947
0.00372501
0.00329755
0.00268652
0.00194279
0.00120555
0.00061599
0.000246547
8.87896e-005
0.000124122
0.000501925
0.00156571
0.00358818
0.00602651
0.00733117
0.00617779
0.00326235
0.000800495
0.00306012
0.0037436
0.0105754
0.00908957
0.00707656
0.00517696
0.00431241
0.00449161
0.00485173
0.00478835
0.00417993
0.00319786
0.00212526
0.00120922
0.000572232
0.000214628
6.39858e-005
4.46854e-005
0.000224402
0.00105428
0.00334608
0.00649481
0.00785768
0.00618273
0.00310074
0.000737907
0.0037436
0.00574445
0.0125441
0.00931536
0.00649189
0.00524895
0.005361
0.00625388
0.00679022
0.00645072
0.00532422
0.0038378
0.00240612
0.00129351
0.000582092
0.000209246
5.20555e-005
6.16286e-005
0.000122274
0.000459324
0.00201788
0.00602698
0.0104404
0.00874276
0.0040731
0.00117728
0.00574445
0.00945036
0.0152735
0.010418
0.00693517
0.00620458
0.00761076
0.00995131
0.0107523
0.00959685
0.00736972
0.00494884
0.0029966
0.00165989
0.000850147
0.00051711
0.000449438
0.000455241
0.000474417
0.000536802
0.000969535
0.00283264
0.00731
0.0116079
0.00856833
0.00347733
0.00945036
0.0150066
0.0191956
0.0121224
0.00736706
0.00640541
0.00877399
0.0143087
0.0177895
0.0156915
0.0113402
0.00715995
0.00414009
0.00252314
0.00183158
0.00157864
0.00157788
0.00166687
0.00173546
0.00170312
0.00159087
0.00175664
0.00315224
0.0068769
0.00998128
0.00738627
0.0150066
0.021113
0.0243168
0.0143394
0.00734717
0.00475746
0.00522701
0.0106504
0.0198961
0.0213483
0.0150528
0.00891387
0.00471788
0.00294401
0.00214802
0.00173384
0.00162673
0.00179887
0.00220291
0.00268864
0.00302916
0.00322112
0.00379229
0.00536909
0.0082551
0.00960893
0.021113
0.026522
0.0305895
0.0176685
0.0078729
0.00327845
0.00149758
0.00400274
0.0116216
0.0176954
0.0132907
0.00790296
0.00400947
0.00257251
0.00187366
0.00152766
0.00137901
0.00130931
0.00123119
0.00109904
0.000913954
0.000760172
0.000905496
0.00188345
0.00482727
0.0096751
0.026522
0.0301656
0.0361041
0.0224965
0.0105943
0.00412815
0.00146634
0.00182004
0.00551857
0.00964169
0.00800672
0.0051138
0.00272336
0.00182011
0.00136314
0.00109466
0.000904652
0.0007389
0.000578717
0.000426371
0.000293908
0.000212332
0.00026875
0.000755469
0.00294037
0.00889958
0.0301656
0.0320685
0.0418733
0.0298361
0.0162477
0.00755601
0.00363337
0.00280099
0.00372094
0.00490453
0.00417664
0.00285254
0.00168947
0.00111576
0.000814252
0.000607476
0.000443376
0.00030937
0.000203572
0.000125226
7.18063e-005
4.22925e-005
7.66452e-005
0.000384021
0.00237011
0.00809984
0.0320685

VECTORS u double
-0.931669 38.3691 0.0
-8.98017 43.148 0.0
-19.0628 45.07 0.0
-31.813 46.3376 0.0
-43.2906 46.2414 0.0
-45.8231 43.1372 0.0
-33.0881 36.7566 0.0
-21.2276 32.4826 0.0
-17.6678 32.0606 0.0
-16.3568 33.2245 0.0
-12.4416 32.9233 0.0
-6.58209 31.0619 0.0
2.17674 28.2566 0.0
11.043 25.4749 0.0
19.3797 22.9196 0.0
27.1151 20.5994 0.0
34.1978 18.5255 0.0
40.6713 16.681 0.0
46.6407 15.0294 0.0
52.2113 13.6082 0.0
56.8218 9.62099 0.0
33.1962 15.994 0.0
17.305 21.0316 0.0
8.39424 25.6235 0.0
-1.25086 33.1762 0.0
-0.931669 38.3691 0.0
-3.98681 41.197 0.0
-14.9752 47.4921 0.0
-28.712 49.7948 0.0
-44.326 51.0852 0.0
-57.074 51.1993 0.0
-61.5183 49.4535 0.0
-55.7721 45.8489 0.0
-45.4146 41.816 0.0
-36.8164 39.1281 0.0
-31.6454 38.149 0.0
-26.2616 36.7803 0.0
-20.6582 34.8285 0.0
-12.5413 32.0459 0.0
-3.9316 29.151 0.0
4.28259 26.4927 0.0
12.023 24.092 0.0
19.5006 21.8745 0.0
27.038 19.7311 0.0
34.2162 17.8196 0.0
37.2794 18.6106 0.0
37.768 13.664 0.0
13.0694 28.1303 0.0
39.917 -2.13269 0.0
19.9449 16.3767 0.0
3.68841 31.6429 0.0
-3.98681 41.197 0.0
-9.87897 45.1922 0.0
-25.1533 52.2173 0.0
-40.8026 54.7285 0.0
-56.4912 55.8085 0.0
-68.2716 55.771 0.0
-73.2392 54.5668 0.0
-71.7352 52.3862 0.0
-66.3591 49.6899 0.0
-59.9075 47.1693 0.0
-54.6554 45.3695 0.0
-49.9951 43.6476 0.0
-45.7585 41.8461 0.0
-40.3196 39.6209 0.0
-33.8129 37.1271 0.0
-26.0199 34.4057 0.0
-16.4163 31.338 0.0
-3.61284 27.4928 0.0
17.0332 20.7232 0.0
23.3752 16.3353 0.0
-6.50099 53.8066 0.0
-22.0839 63.0229 0.0
-15.5954 54.8533 0.0
-18.0079 55.8838 0.0
35.1817 7.92947 0.0
24.8665 17.3972 0.0
-9.87897 45.1922 0.0
-29.4216 57.147 0.0
-41.7028 60.4239 0.0
-56.1235 62.2099 0.0
-69.7513 62.8089 0.0
-79.6891 62.5082 0.0
-84.8975 61.5585 0.0
-86.3536 60.2001 0.0
-85.562 58.6156 0.0
-83.7741 56.9798 0.0
-81.9629 55.4331 0.0
-80.2608 53.8692 0.0
-78.586 52.2733 0.0
-76.4167 50.5815 0.0
-73.3244 48.7871 0.0
-68.5594 46.8171 0.0
-60.5531 44.4674 0.0
-44.6592 41.0992 0.0
67.1405 -35.6781 0.0
23.7324 41.2128 0.0
-21.5979 67.9996 0.0
-26.4841 68.2938 0.0
-26.4896 65.5861 0.0
-23.2299 60.3265 0.0
-22.3718 56.6414 0.0
-23.9822 54.734 0.0
-29.4216 57.147 0.0
-54.8265 73.3464 0.0
-63.3747 73.7705 0.0
-74.1179 74.229 0.0
-84.1393 73.9458 0.0
-91.6161 72.9329 0.0
-96.228 71.4137 0.0
-98.5356 69.5657 0.0
-99.2283 67.4681 0.0
-98.8968 65.1841 0.0
-98.0085 62.8123 0.0
-96.8149 60.4512 0.0
-95.4193 58.204 0.0
-93.7608 56.1441 0.0
-91.6501 54.3402 0.0
-88.592 52.8839 0.0
-82.9865 52.0462 0.0
-64.7432 54.3149 0.0
3.48424 85.0576 0.0
-31.4992 76.8669 0.0
-36.7273 76.8476 0.0
-40.4453 77.2676 0.0
-43.9403 77.3969 0.0
-47.04 76.9575 0.0
-49.8958 76.0055 0.0
-52.5726 74.5406 0.0
-54.8265 73.3464 0.0
-72.1774 84.0669 0.0
-79.6854 84.7092 0.0
-87.4773 84.6309 0.0
-94.4398 83.5606 0.0
-99.7499 81.6108 0.0
-103.187 79.0085 0.0
-104.903 75.946 0.0
-105.236 72.585 0.0
-104.612 69.1007 0.0
-103.433 65.672 0.0
-101.971 62.442 0.0
-100.349 59.5113 0.0
-98.5553 56.9569 0.0
-96.4277 54.8722 0.0
-93.4458 53.4437 0.0
-87.5245 53.326 0.0
-57.6239 61.8483 0.0
-10.7393 82.9422 0.0
-35.2744 76.7727 0.0
-40.5146 77.5738 0.0
-45.3027 78.9444 0.0
-50.5573 80.3715 0.0
-56.1219 81.689 0.0
-61.833 82.7717 0.0
-67.5906 83.5184 0.0
-72.1774 84.0669 0.0
-81.2734 87.2479 0.0
-88.3771 88.6499 0.0
-94.6987 88.7785 0.0
-100.024 87.5559 0.0
-104.03 85.1917 0.0
-106.557 81.9564 0.0
-107.654 78.1102 0.0
-107.572 73.917 0.0
-106.682 69.641 0.0
-105.335 65.5059 0.0
-103.771 61.6655 0.0
-102.094 58.2175 0.0
-100.285 55.2417 0.0
-98.1397 52.8546 0.0
-94.8622 51.3499 0.0
-86.59 51.9635 0.0
-38.8284 66.457 0.0
-18.0117 77.6827 0.0
-36.5505 74.0546 0.0
-41.792 75.4997 0.0
-47.2458 77.4252 0.0
-53.5635 79.53 0.0
-60.5591 81.6866 0.0
-67.9605 83.7615 0.0
-75.442 85.6048 0.0
-81.2734 87.2479 0.0
-86.0346 85.1702 0.0
-92.9963 87.1574 0.0
-98.6529 87.6953 0.0
-103.148 86.6793 0.0
-106.396 84.3092 0.0
-108.326 80.8731 0.0
-109.002 76.6817 0.0
-108.66 72.0594 0.0
-107.63 67.3173 0.0
-106.218 62.7065 0.0
-104.628 58.3957 0.0
-102.944 54.4865 0.0
-101.12 51.048 0.0
-98.8885 48.1502 0.0
-95.1831 45.9271 0.0
-84.7188 45.1963 0.0
-28.4442 57.45 0.0
-21.0789 69.812 0.0
-36.24 69.2806 0.0
-41.5046 71.0801 0.0
-47.2706 73.2751 0.0
-54.2364 75.6969 0.0
-62.2012 78.2362 0.0
-70.7667 80.742 0.0
-79.3945 83.0303 0.0
-86.0346 85.1702 0.0
-88.1128 79.5173 0.0
-95.2441 81.9075 0.0
-100.716 82.8476 0.0
-104.839 82.1536 0.0
-107.673 79.9694 0.0
-109.243 76.5695 0.0
-109.658 72.2815 0.0
-109.155 67.4538 0.0
-108.031 62.4163 0.0
-106.549 57.4323 0.0
-104.865 52.6716 0.0
-102.977 48.2025 0.0
-100.6 43.9539 0.0
-96.6521 39.482 0.0
-87.2181 33.1088 0.0
-64.104 22.9983 0.0
-26.0802 23.65 0.0
-23.6724 53.183 0.0
-34.878 62.1219 0.0
-40.0488 64.6944 0.0
-45.7817 66.9916 0.0
-53.0094 69.4707 0.0
-61.6138 72.1009 0.0
-71.0852 74.7338 0.0
-80.6759 77.1649 0.0
-88.1128 79.5173 0.0
-87.8704 71.777 0.0
-95.4892 74.4031 0.0
-101.156 75.667 0.0
-105.258 75.3058 0.0
-107.965 73.392 0.0
-109.388 70.1622 0.0
-109.683 65.9306 0.0
-109.086 61.0404 0.0
-107.861 55.815 0.0
-106.204 50.504 0.0
-104.14 45.231 0.0
-101.318 39.9031 0.0
-96.2936 33.8451 0.0
-82.707 23.7842 0.0
-38.7249 -1.07491 0.0
-27.7783 -4.82226 0.0
-29.4961 -1.15778 0.0
-24.8848 25.4921 0.0
-32.2 51.445 0.0
-37.569 56.8582 0.0
-43.0442 59.4547 0.0
-50.1109 61.8581 0.0
-58.9711 64.3703 0.0
-69.1133 66.9355 0.0
-79.5684 69.3586 0.0
-87.8704 71.777 0.0
-85.2903 63.5624 0.0
-93.7233 66.2978 0.0
-99.9278 67.8019 0.0
-104.319 67.7533 0.0
-107.159 66.1558 0.0
-108.637 63.1944 0.0
-108.943 59.1474 0.0
-108.305 54.3265 0.0
-106.927 49.0202 0.0
-104.871 43.4208 0.0
-101.83 37.5106 0.0
-96.4645 30.738 0.0
-83.0541 20.3625 0.0
9.66804 -28.0685 0.0
-12.9924 -10.439 0.0
-23.7238 -6.41276 0.0
-18.4229 -8.21874 0.0
-16.5544 1.4015 0.0
-26.0981 33.3289 0.0
-33.5103 47.0133 0.0
-39.1366 51.4592 0.0
-45.7515 54.1079 0.0
-54.3615 56.432 0.0
-64.8222 58.797 0.0
-76.0313 61.1369 0.0
-85.2903 63.5624 0.0
-80.1907 56.0826 0.0
-89.8811 58.8882 0.0
-97.019 60.6032 0.0
-101.997 60.8638 0.0
-105.196 59.6242 0.0
-106.895 57.0202 0.0
-107.318 53.2826 0.0
-106.657 48.6712 0.0
-105.003 43.4067 0.0
-102.13 37.556 0.0
-96.9019 30.7543 0.0
-84.6335 21.0381 0.0
-26.6768 -8.22099 0.0
-2.60145 -9.26579 0.0
-25.2311 -1.02409 0.0
-20.3561 -3.27392 0.0
-11.398 -8.77456 0.0
-10.6017 -2.35771 0.0
-16.0887 11.7578 0.0
-25.3735 30.9712 0.0
-33.195 41.7973 0.0
-39.9863 46.6831 0.0
-47.944 49.3159 0.0
-58.1122 51.4531 0.0
-69.8238 53.6495 0.0
-80.1907 56.0826 0.0
-71.8818 49.6217 0.0
-83.5501 52.579 0.0
-92.3504 54.5845 0.0
-98.3599 55.198 0.0
-102.152 54.3602 0.0
-104.198 52.1827 0.0
-104.782 48.8532 0.0
-104.043 44.5676 0.0
-101.861 39.4428 0.0
-97.4097 33.317 0.0
-87.4463 25.0877 0.0
-56.4098 9.39387 0.0
-1.91852 -6.13528 0.0
-24.9944 3.4715 0.0
-22.0717 2.37118 0.0
-18.5081 0.625045 0.0
-10.2687 -0.962722 0.0
-9.85014 6.835 0.0
-12.1067 7.79405 0.0
-14.4287 12.527 0.0
-22.1227 25.1855 0.0
-31.5879 37.0743 0.0
-39.8755 42.7035 0.0
-49.0981 45.2087 0.0
-60.4818 47.1957 0.0
-71.8818 49.6217 0.0
-58.9367 43.479 0.0
-73.0909 46.8207 0.0
-85.1316 49.4689 0.0
-93.2367 50.5912 0.0
-98.0917 50.2119 0.0
-100.627 48.4901 0.0
-101.347 45.5981 0.0
-100.334 41.6633 0.0
-97.0741 36.6487 0.0
-89.4623 30.0025 0.0
-69.7021 19.5426 0.0
-25.2485 4.83542 0.0
-24.2272 7.46308 0.0
-22.1482 6.79075 0.0
-19.586 5.47518 0.0
-17.2315 4.33757 0.0
-12.2452 8.10772 0.0
-11.6708 11.1187 0.0
-12.21 11.1317 0.0
-12.4814 11.8335 0.0
-13.4248 13.5848 0.0
-18.6505 21.2763 0.0
-28.9418 33.1685 0.0
-38.406 39.1627 0.0
-48.0307 41.2729 0.0
-58.9367 43.479 0.0
-40.2474 36.1053 0.0
-54.9691 39.951 0.0
-72.724 44.3972 0.0
-85.371 46.5141 0.0
-92.5753 46.7291 0.0
-95.9909 45.4642 0.0
-96.7259 42.9443 0.0
-94.8645 39.2241 0.0
-89.0903 34.0401 0.0
-74.8941 26.4042 0.0
-44.6771 15.7842 0.0
-25.5496 11.8696 0.0
-22.2292 11.1194 0.0
-20.0294 9.78885 0.0
-18.4185 8.40509 0.0
-16.4927 7.69273 0.0
-12.3921 12.0072 0.0
-12.1341 13.504 0.0
-12.4381 13.6156 0.0
-12.6355 14.0367 0.0
-12.7377 14.4039 0.0
-12.9919 15.1492 0.0
-16.0337 19.5699 0.0
-25.7006 30.1029 0.0
-34.0052 34.9936 0.0
-40.2474 36.1053 0.0
-14.5698 25.3324 0.0
-26.5946 29.4306 0.0
-51.1677 38.0223 0.0
-71.2128 42.2367 0.0
-83.405 43.3574 0.0
-88.7948 42.5461 0.0