# vtk DataFile Version 2.0
Particulate Flow Equations Solution
ASCII
DATASET STRUCTURED_GRID
DIMENSIONS 26 26 1
POINTS 676 double
-10 -10 0
-9.23077 -10 0
-8.46154 -10 0
-7.69231 -10 0
-6.92308 -10 0
-6.15385 -10 0
-5.38462 -10 0
-4.61538 -10 0
-3.84615 -10 0
-3.07692 -10 0
-2.30769 -10 0
-1.53846 -10 0
-0.769231 -10 0
5.55112e-016 -10 0
0.769231 -10 0
1.53846 -10 0
2.30769 -10 0
3.07692 -10 0
3.84615 -10 0
4.61538 -10 0
5.38462 -10 0
6.15385 -10 0
6.92308 -10 0
7.69231 -10 0
8.46154 -10 0
10 -10 0
-10 -9.23077 0
-9.23077 -9.23077 0
-8.46154 -9.23077 0
-7.69231 -9.23077 0
-6.92308 -9.23077 0
-6.15385 -9.23077 0
-5.38462 -9.23077 0
-4.61538 -9.23077 0
-3.84615 -9.23077 0
-3.07692 -9.23077 0
-2.30769 -9.23077 0
-1.53846 -9.23077 0
-0.769231 -9.23077 0
5.55112e-016 -9.23077 0
0.769231 -9.23077 0
1.53846 -9.23077 0
2.30769 -9.23077 0
3.07692 -9.23077 0
3.84615 -9.23077 0
4.61538 -9.23077 0
5.38462 -9.23077 0
6.15385 -9.23077 0
6.92308 -9.23077 0
7.69231 -9.23077 0
8.46154 -9.23077 0
10 -9.23077 0
-10 -8.46154 0
-9.23077 -8.46154 0
-8.46154 -8.46154 0
-7.69231 -8.46154 0
-6.92308 -8.46154 0
-6.15385 -8.46154 0
-5.38462 -8.46154 0
-4.61538 -8.46154 0
-3.84615 -8.46154 0
-3.07692 -8.46154 0
-2.30769 -8.46154 0
-1.53846 -8.46154 0
-0.769231 -8.46154 0
5.55112e-016 -8.46154 0
0.769231 -8.46154 0
1.53846 -8.46154 0
2.30769 -8.46154 0
3.07692 -8.46154 0
3.84615 -8.46154 0
4.61538 -8.46154 0
5.38462 -8.46154 0
6.15385 -8.46154 0
6.92308 -8.46154 0
7.69231 -8.46154 0
8.46154 -8.46154 0
10 -8.46154 0
-10 -7.69231 0
-9.23077 -7.69231 0
-8.46154 -7.69231 0
-7.69231 -7.69231 0
-6.92308 -7.69231 0
-6.15385 -7.69231 0
-5.38462 -7.69231 0
-4.61538 -7.69231 0
-3.84615 -7.69231 0
-3.07692 -7.69231 0
-2.30769 -7.69231 0
-1.53846 -7.69231 0
-0.769231 -7.69231 0
5.55112e-016 -7.69231 0
0.769231 -7.69231 0
1.53846 -7.69231 0
2.30769 -7.69231 0
3.07692 -7.69231 0
3.84615 -7.69231 0
4.61538 -7.69231 0
5.38462 -7.69231 0
6.15385 -7.69231 0
6.92308 -7.69231 0
7.69231 -7.69231 0
8.46154 -7.69231 0
10 -7.69231 0
-10 -6.92308 0
-9.23077 -6.92308 0
-8.46154 -6.92308 0
-7.69231 -6.92308 0
-6.92308 -6.92308 0
-6.15385 -6.92308 0
-5.38462 -6.92308 0
-4.61538 -6.92308 0
-3.84615 -6.92308 0
-3.07692 -6.92308 0
-2.30769 -6.92308 0
-1.53846 -6.92308 0
-0.769231 -6.92308 0
5.55112e-016 -6.92308 0
0.769231 -6.92308 0
1.53846 -6.92308 0
2.30769 -6.92308 0
3.07692 -6.92308 0
3.84615 -6.92308 0
4.61538 -6.92308 0
5.38462 -6.92308 0
6.15385 -6.92308 0
6.92308 -6.92308 0
7.69231 -6.92308 0
8.46154 -6.92308 0
10 -6.92308 0
-10 -6.15385 0
-9.23077 -6.15385 0
-8.46154 -6.15385 0
-7.69231 -6.15385 0
-6.92308 -6.15385 0
-6.15385 -6.15385 0
-5.38462 -6.15385 0
-4.61538 -6.15385 0
-3.84615 -6.15385 0
-3.07692 -6.15385 0
-2.30769 -6.15385 0
-1.53846 -6.15385 0
-0.769231 -6.15385 0
5.55112e-016 -6.15385 0
0.769231 -6.15385 0
1.53846 -6.15385 0
2.30769 -6.15385 0
3.07692 -6.15385 0
3.84615 -6.15385 0
4.61538 -6.15385 0
5.38462 -6.15385 0
6.15385 -6.15385 0
6.92308 -6.15385 0
7.69231 -6.15385 0
8.46154 -6.15385 0
10 -6.15385 0
-10 -5.38462 0
-9.23077 -5.38462 0
-8.46154 -5.38462 0
-7.69231 -5.38462 0
-6.92308 -5.38462 0
-6.15385 -5.38462 0
-5.38462 -5.38462 0
-4.61538 -5.38462 0
-3.84615 -5.38462 0
-3.07692 -5.38462 0
-2.30769 -5.38462 0
-1.53846 -5.38462 0
-0.769231 -5.38462 0
5.55112e-016 -5.38462 0
0.769231 -5.38462 0
1.53846 -5.38462 0
2.30769 -5.38462 0
3.07692 -5.38462 0
3.84615 -5.38462 0
4.61538 -5.38462 0
5.38462 -5.38462 0
6.15385 -5.38462 0
6.92308 -5.38462 0
7.69231 -5.38462 0
8.46154 -5.38462 0
10 -5.38462 0
-10 -4.61538 0
-9.23077 -4.61538 0
-8.46154 -4.61538 0
-7.69231 -4.61538 0
-6.92308 -4.61538 0
-6.15385 -4.61538 0
-5.38462 -4.61538 0
-4.61538 -4.61538 0
-3.84615 -4.61538 0
-3.07692 -4.61538 0
-2.30769 -4.61538 0
-1.53846 -4.61538 0
-0.769231 -4.61538 0
5.55112e-016 -4.61538 0
0.769231 -4.61538 0
1.53846 -4.61538 0
2.30769 -4.61538 0
3.07692 -4.61538 0
3.84615 -4.61538 0
4.61538 -4.61538 0
5.38462 -4.61538 0
6.15385 -4.61538 0
6.92308 -4.61538 0
7.69231 -4.61538 0
8.46154 -4.61538 0
10 -4.61538 0
-10 -3.84615 0
-9.23077 -3.84615 0
-8.46154 -3.84615 0
-7.69231 -3.84615 0
-6.92308 -3.84615 0
-6.15385 -3.84615 0
-5.38462 -3.84615 0
-4.61538 -3.84615 0
-3.84615 -3.84615 0
-3.07692 -3.84615 0
-2.30769 -3.84615 0
-1.53846 -3.84615 0
-0.769231 -3.84615 0
5.55112e-016 -3.84615 0
0.769231 -3.84615 0
1.53846 -3.84615 0
2.30769 -3.84615 0
3.07692 -3.84615 0
3.84615 -3.84615 0
4.61538 -3.84615 0
5.38462 -3.84615 0
6.15385 -3.84615 0
6.92308 -3.84615 0
7.69231 -3.84615 0
8.46154 -3.84615 0
10 -3.84615 0
-10 -3.07692 0
-9.23077 -3.07692 0
-8.46154 -3.07692 0
-7.69231 -3.07692 0
-6.92308 -3.07692 0
-6.15385 -3.07692 0
-5.38462 -3.07692 0
-4.61538 -3.07692 0
-3.84615 -3.07692 0
-3.07692 -3.07692 0
-2.30769 -3.07692 0
-1.53846 -3.07692 0
-0.769231 -3.07692 0
5.55112e-016 -3.07692 0
0.769231 -3.07692 0
1.53846 -3.07692 0
2.30769 -3.07692 0
3.07692 -3.07692 0
3.84615 -3.07692 0
4.61538 -3.07692 0
5.38462 -3.07692 0
6.15385 -3.07692 0
6.92308 -3.07692 0
7.69231 -3.07692 0
8.46154 -3.07692 0
10 -3.07692 0
-10 -2.30769 0
-9.23077 -2.30769 0
-8.46154 -2.30769 0
-7.69231 -2.30769 0
-6.92308 -2.30769 0
-6.15385 -2.30769 0
-5.38462 -2.30769 0
-4.61538 -2.30769 0
-3.84615 -2.30769 0
-3.07692 -2.30769 0
-2.30769 -2.30769 0
-1.53846 -2.30769 0
-0.769231 -2.30769 0
5.55112e-016 -2.30769 0
0.769231 -2.30769 0
1.53846 -2.30769 0
2.30769 -2.30769 0
3.07692 -2.30769 0
3.84615 -2.30769 0
4.61538 -2.30769 0
5.38462 -2.30769 0
6.15385 -2.30769 0
6.92308 -2.30769 0
7.69231 -2.30769 0
8.46154 -2.30769 0
10 -2.30769 0
-10 -1.53846 0
-9.23077 -1.53846 0
-8.46154 -1.53846 0
-7.69231 -1.53846 0
-6.92308 -1.53846 0
-6.15385 -1.53846 0
-5.38462 -1.53846 0
-4.61538 -1.53846 0
-3.84615 -1.53846 0
-3.07692 -1.53846 0
-2.30769 -1.53846 0
-1.53846 -1.53846 0
-0.769231 -1.53846 0
5.55112e-016 -1.53846 0
0.769231 -1.53846 0
1.53846 -1.53846 0
2.30769 -1.53846 0
3.07692 -1.53846 0
3.84615 -1.53846 0
4.61538 -1.53846 0
5.38462 -1.53846 0
6.15385 -1.53846 0
6.92308 -1.53846 0
7.69231 -1.53846 0
8.46154 -1.53846 0
10 -1.53846 0
-10 -0.769231 0
-9.23077 -0.769231 0
-8.46154 -0.769231 0
-7.69231 -0.769231 0
-6.92308 -0.769231 0
-6.15385 -0.769231 0
-5.38462 -0.769231 0
-4.61538 -0.769231 0
-3.84615 -0.769231 0
-3.07692 -0.769231 0
-2.30769 -0.769231 0
-1.53846 -0.769231 0
-0.769231 -0.769231 0
5.55112e-016 -0.769231 0
0.769231 -0.769231 0
1.53846 -0.769231 0
2.30769 -0.769231 0
3.07692 -0.769231 0
3.84615 -0.769231 0
4.61538 -0.769231 0
5.38462 -0.769231 0
6.15385 -0.769231 0
6.92308 -0.769231 0
7.69231 -0.769231 0
8.46154 -0.769231 0
10 -0.769231 0
-10 5.55112e-016 0
-9.23077 5.55112e-016 0
-8.46154 5.55112e-016 0
-7.69231 5.55112e-016 0
-6.92308 5.55112e-016 0
-6.15385 5.55112e-016 0
-5.38462 5.55112e-016 0
-4.61538 5.55112e-016 0
-3.84615 5.55112e-016 0
-3.07692 5.55112e-016 0
-2.30769 5.55112e-016 0
-1.53846 5.55112e-016 0
-0.769231 5.55112e-016 0
5.55112e-016 5.55112e-016 0
0.769231 5.55112e-016 0
1.53846 5.55112e-016 0
2.30769 5.55112e-016 0
3.07692 5.55112e-016 0
3.84615 5.55112e-016 0
4.61538 5.55112e-016 0
5.38462 5.55112e-016 0
6.15385 5.55112e-016 0
6.92308 5.55112e-016 0
7.69231 5.55112e-016 0
8.46154 5.55112e-016 0
10 5.55112e-016 0
-10 0.769231 0
-9.23077 0.769231 0
-8.46154 0.769231 0
-7.69231 0.769231 0
-6.92308 0.769231 0
-6.15385 0.769231 0
-5.38462 0.769231 0
-4.61538 0.769231 0
-3.84615 0.769231 0
-3.07692 0.769231 0
-2.30769 0.769231 0
-1.53846 0.769231 0
-0.769231 0.769231 0
5.55112e-016 0.769231 0
0.769231 0.769231 0
1.53846 0.769231 0
2.30769 0.769231 0
3.07692 0.769231 0
3.84615 0.769231 0
4.61538 0.769231 0
5.38462 0.769231 0
6.15385 0.769231 0
6.92308 0.769231 0
7.69231 0.769231 0
8.46154 0.769231 0
10 0.769231 0
-10 1.53846 0
-9.23077 1.53846 0
-8.46154 1.53846 0
-7.69231 1.53846 0
-6.92308 1.53846 0
-6.15385 1.53846 0
-5.38462 1.53846 0
-4.61538 1.53846 0
-3.84615 1.53846 0
-3.07692 1.53846 0
-2.30769 1.53846 0
-1.53846 1.53846 0
-0.769231 1.53846 0
5.55112e-016 1.53846 0
0.769231 1.53846 0
1.53846 1.53846 0
2.30769 1.53846 0
3.07692 1.53846 0
3.84615 1.53846 0
4.61538 1.53846 0
5.38462 1.53846 0
6.15385 1.53846 0
6.92308 1.53846 0
7.69231 1.53846 0
8.46154 1.53846 0
10 1.53846 0
-10 2.30769 0
-9.23077 2.30769 0
-8.46154 2.30769 0
-7.69231 2.30769 0
-6.92308 2.30769 0
-6.15385 2.30769 0
-5.38462 2.30769 0
-4.61538 2.30769 0
-3.84615 2.30769 0
-3.07692 2.30769 0
-2.30769 2.30769 0
-1.53846 2.30769 0
-0.769231 2.30769 0
5.55112e-016 2.30769 0
0.769231 2.30769 0
1.53846 2.30769 0
2.30769 2.30769 0
3.07692 2.30769 0
3.84615 2.30769 0
4.61538 2.30769 0
5.38462 2.30769 0
6.15385 2.30769 0
6.92308 2.30769 0
7.69231 2.30769 0
8.46154 2.30769 0
10 2.30769 0
-10 3.07692 0
-9.23077 3.07692 0
-8.46154 3.07692 0
-7.69231 3.07692 0
-6.92308 3.07692 0
-6.15385 3.07692 0
-5.38462 3.07692 0
-4.61538 3.07692 0
-3.84615 3.07692 0
-3.07692 3.07692 0
-2.30769 3.07692 0
-1.53846 3.07692 0
-0.769231 3.07692 0
5.55112e-016 3.07692 0
0.769231 3.07692 0
1.53846 3.07692 0
2.30769 3.07692 0
3.07692 3.07692 0
3.84615 3.07692 0
4.61538 3.07692 0
5.38462 3.07692 0
6.15385 3.07692 0
6.92308 3.07692 0
7.69231 3.07692 0
8.46154 3.07692 0
10 3.07692 0
-10 3.84615 0
-9.23077 3.84615 0
-8.46154 3.84615 0
-7.69231 3.84615 0
-6.92308 3.84615 0
-6.15385 3.84615 0
-5.38462 3.84615 0
-4.61538 3.84615 0
-3.84615 3.84615 0
-3.07692 3.84615 0
-2.30769 3.84615 0
-1.53846 3.84615 0
-0.769231 3.84615 0
5.55112e-016 3.84615 0
0.769231 3.84615 0
1.53846 3.84615 0
2.30769 3.84615 0
3.07692 3.84615 0
3.84615 3.84615 0
4.61538 3.84615 0
5.38462 3.84615 0
6.15385 3.84615 0
6.92308 3.84615 0
7.69231 3.84615 0
8.46154 3.84615 0
10 3.84615 0
-10 4.61538 0
-9.23077 4.61538 0
-8.46154 4.61538 0
-7.69231 4.61538 0
-6.92308 4.61538 0
-6.15385 4.61538 0
-5.38462 4.61538 0
-4.61538 4.61538 0
-3.84615 4.61538 0
-3.07692 4.61538 0
-2.30769 4.61538 0
-1.53846 4.61538 0
-0.769231 4.61538 0
5.55112e-016 4.61538 0
0.769231 4.61538 0
1.53846 4.61538 0
2.30769 4.61538 0
3.07692 4.61538 0
3.84615 4.61538 0
4.61538 4.61538 0
5.38462 4.61538 0
6.15385 4.61538 0
6.92308 4.61538 0
7.69231 4.61538 0
8.46154 4.61538 0
10 4.61538 0
-10 5.38462 0
-9.23077 5.38462 0
-8.46154 5.38462 0
-7.69231 5.38462 0
-6.92308 5.38462 0
-6.15385 5.38462 0
-5.38462 5.38462 0
-4.61538 5.38462 0
-3.84615 5.38462 0
-3.07692 5.38462 0
-2.30769 5.38462 0
-1.53846 5.38462 0
-0.769231 5.38462 0
5.55112e-016 5.38462 0
0.769231 5.38462 0
1.53846 5.38462 0
2.30769 5.38462 0
3.07692 5.38462 0
3.84615 5.38462 0
4.61538 5.38462 0
5.38462 5.38462 0
6.15385 5.38462 0
6.92308 5.38462 0
7.69231 5.38462 0
8.46154 5.38462 0
10 5.38462 0
-10 6.15385 0
-9.23077 6.15385 0
-8.46154 6.15385 0
-7.69231 6.15385 0
-6.92308 6.15385 0
-6.15385 6.15385 0
-5.38462 6.15385 0
-4.61538 6.15385 0
-3.84615 6.15385 0
-3.07692 6.15385 0
-2.30769 6.15385 0
-1.53846 6.15385 0
-0.769231 6.15385 0
5.55112e-016 6.15385 0
0.769231 6.15385 0
1.53846 6.15385 0
2.30769 6.15385 0
3.07692 6.15385 0
3.84615 6.15385 0
4.61538 6.15385 0
5.38462 6.15385 0
6.15385 6.15385 0
6.92308 6.15385 0
7.69231 6.15385 0
8.46154 6.15385 0
10 6.15385 0
-10 6.92308 0
-9.23077 6.92308 0
-8.46154 6.92308 0
-7.69231 6.92308 0
-6.92308 6.92308 0
-6.15385 6.92308 0
-5.38462 6.92308 0
-4.61538 6.92308 0
-3.84615 6.92308 0
-3.07692 6.92308 0
-2.30769 6.92308 0
-1.53846 6.92308 0
-0.769231 6.92308 0
5.55112e-016 6.92308 0
0.769231 6.92308 0
1.53846 6.92308 0
2.30769 6.92308 0
3.07692 6.92308 0
3.84615 6.92308 0
4.61538 6.92308 0
5.38462 6.92308 0
6.15385 6.92308 0
6.92308 6.92308 0
7.69231 6.92308 0
8.46154 6.92308 0
10 6.92308 0
-10 7.69231 0
-9.23077 7.69231 0
-8.46154 7.69231 0
-7.69231 7.69231 0
-6.92308 7.69231 0
-6.15385 7.69231 0
-5.38462 7.69231 0
-4.61538 7.69231 0
-3.84615 7.69231 0
-3.07692 7.69231 0
-2.30769 7.69231 0
-1.53846 7.69231 0
-0.769231 7.69231 0
5.55112e-016 7.69231 0
0.769231 7.69231 0
1.53846 7.69231 0
2.30769 7.69231 0
3.07692 7.69231 0
3.84615 7.69231 0
4.61538 7.69231 0
5.38462 7.69231 0
6.15385 7.69231 0
6.92308 7.69231 0
7.69231 7.69231 0
8.46154 7.69231 0
10 7.69231 0
-10 8.46154 0
-9.23077 8.46154 0
-8.46154 8.46154 0
-7.69231 8.46154 0
-6.92308 8.46154 0
-6.15385 8.46154 0
-5.38462 8.46154 0
-4.61538 8.46154 0
-3.84615 8.46154 0
-3.07692 8.46154 0
-2.30769 8.46154 0
-1.53846 8.46154 0
-0.769231 8.46154 0
5.55112e-016 8.46154 0
0.769231 8.46154 0
1.53846 8.46154 0
2.30769 8.46154 0
3.07692 8.46154 0
3.84615 8.46154 0
4.61538 8.46154 0
5.38462 8.46154 0
6.15385 8.46154 0
6.92308 8.46154 0
7.69231 8.46154 0
8.46154 8.46154 0
10 8.46154 0
-10 10 0
-9.23077 10 0
-8.46154 10 0
-7.69231 10 0
-6.92308 10 0
-6.15385 10 0
-5.38462 10 0
-4.61538 10 0
-3.84615 10 0
-3.07692 10 0
-2.30769 10 0
-1.53846 10 0
-0.769231 10 0
5.55112e-016 10 0
0.769231 10 0
1.53846 10 0
2.30769 10 0
3.07692 10 0
3.84615 10 0
4.61538 10 0
5.38462 10 0
6.15385 10 0
6.92308 10 0
7.69231 10 0
8.46154 10 0
10 10 0

POINT_DATA 676
SCALARS h double 1
LOOkUP_TABLE default
0.0653052
0.0584464
0.0526845
0.047949
0.0442399
0.0416383
0.0403231
0.040599
0.0429136
0.0478266
0.0558744
0.0672892
0.0816325
0.0975499
0.112894
0.125279
0.132837
0.134771
0.131454
0.124109
0.11428
0.103405
0.0925497
0.0823934
0.0732597
0.0653052
0.0751814
0.066595
0.0592984
0.0531732
0.0481549
0.0442548
0.0415685
0.0403121
0.0408613
0.0437744
0.049751
0.0594467
0.0730998
0.0900696
0.108577
0.125946
0.139366
0.146811
0.147628
0.142538
0.13315
0.121336
0.108707
0.0964439
0.0851608
0.0751814
0.0868989
0.0762908
0.0672298
0.0595448
0.0531133
0.0478814
0.0438589
0.0411581
0.0400384
0.0409564
0.0445945
0.0518024
0.0633481
0.0794343
0.099141
0.120183
0.139321
0.153353
0.160194
0.159446
0.152268
0.140688
0.126895
0.112642
0.0991003
0.0868989
0.100465
0.0876555
0.0765858
0.0671247
0.0591281
0.0524837
0.047121
0.04305
0.040403
0.039488
0.0408498
0.0453036
0.0538519
0.0673572
0.0859341
0.10831
0.131638
0.152123
0.166253
0.17201
0.169356
0.159948
0.146224
0.130631
0.114989
0.100465
0.115756
0.100666
0.0874085
0.0759683
0.0662307
0.0580545
0.0513049
0.045901
0.0418568
0.0393277
0.0386735
0.0405309
0.0458501
0.0557789
0.0712439
0.0922151
0.117007
0.142194
0.163481
0.17716
0.181407
0.176646
0.165038
0.149415
0.132358
0.115756
0.132149
0.115055
0.0996034
0.0860576
0.0744243
0.0645848
0.0563701
0.0496293
0.0442769
0.0403344
0.0379823
0.0376327
0.0400133
0.0462033
0.0574768
0.0747826
0.0978883
0.124658
0.151105
0.172533
0.185189
0.187593
0.180702
0.167177
0.150106
0.132149
0.148407
0.130097
0.112791
0.0972142
0.0836295
0.0720316
0.0622712
0.0541616
0.0475447
0.0423361
0.0385676
0.0364454
0.0364319
0.0393394
0.0463604
0.0588613
0.0777577
0.102557
0.130656
0.157581
0.178393
0.189506
0.189922
0.181179
0.166265
0.148407
0.162482
0.144445
0.126155
0.108975
0.0935978
0.0802613
0.0689241
0.0594191
0.051554
0.0451718
0.0401945
0.0366669
0.03482
0.0351612
0.0385743
0.0463363
0.0598532
0.0799372
0.105785
0.134355
0.160836
0.180295
0.189538
0.188146
0.178067
0.162482
0.171699
0.156077
0.138312
0.120466
0.103809
0.0889763
0.0761564
0.0652874
0.0561993
0.0487055
0.0426583
0.0379904
0.0347613
0.0332242
0.0339229
0.0377904
0.0461436
0.0603573
0.0810649
0.107133
0.135185
0.16032
0.177881
0.185234
0.182429
0.171699
0.173347
0.162543
0.147355
0.130345
0.113386
0.0976353
0.0836467
0.0715736
0.0613493
0.0528145
0.0457984
0.0401689
0.0358731
0.0329855
0.0317774
0.032815
0.0370493
0.0457794
0.0602705
0.0809196
0.106303
0.132893
0.155965
0.17137
0.177012
0.173347
0.165711
0.161629
0.151174
0.136902
0.121088
0.105406
0.0908693
0.0779595
0.0668102
0.0573646
0.0494853
0.0430247
0.0378713
0.033989
0.031466
0.0305854
0.0319178
0.0363945
0.0452353
0.0595286
0.0794176
0.103285
0.127663
0.148238
0.161434
0.165711
0.14909
0.152285
0.14811
0.138435
0.125471
0.111206
0.097081
0.0839684
0.0722918
0.0621794
0.0535953
0.0464319
0.0405701
0.0359215
0.0324676
0.0303086
0.0297304
0.0312883
0.0358563
0.0445217
0.0581557
0.0766734
0.0983862
0.120074
0.137948
0.14909
0.126129
0.135384
0.137735
0.133833
0.125257
0.113888
0.10139
0.0889756
0.0773915
0.0670167
0.0579851
0.0502895
0.0438566
0.0385981
0.0344503
0.0314117
0.0295905
0.0292671
0.0309619
0.0354602
0.0436819
0.0562725
0.0729706
0.0921368
0.110908
0.126129
0.101041
0.113746
0.121331
0.123175
0.119818
0.112564
0.102937
0.0922875
0.0816164
0.0715622
0.0624731
0.0544975
0.0476614
0.0419274
0.0372386
0.0335549
0.0308902
0.029357
0.0292212
0.0309531
0.0352282
0.0427857
0.0540617
0.0686846
0.0851454
0.101041
0.0780313
0.0912179
0.10167
0.107956
0.109583
0.106982
0.101161
0.093298
0.0844569
0.0754529
0.0668377
0.0589422
0.0519352
0.0458778
0.0407683
0.0365794
0.0332929
0.0309354
0.0296197
0.0295896
0.031255
0.0351735
0.0419089
0.0517246
0.0641965
0.0780313
0.0598665
0.0712707
0.0820704
0.0907101
0.0960683
0.0977546
0.0960545
0.0916826
0.0855039
0.0783329
0.0708328
0.0634906
0.0566326
0.0504532
0.0450491
0.0404522
0.0366621
0.0336799
0.0315416
0.030356
0.03034
0.0318387
0.0352946
0.0411188
0.0494445
0.0598665
0.0473866
0.0559392
0.065249
0.0741487
0.0814392
0.0862607
0.088257
0.087547
0.084573
0.0799271
0.0742185
0.0679943
0.0617016
0.0556746
0.0501388
0.0452258
0.0409986
0.0374808
0.0346889
0.0326653
0.0315112
0.0314139
0.0326555
0.0355766
0.0404662
0.0473866
0.0399966
0.0456377
0.0526099
0.060292
0.067798
0.0742347
0.0789083
0.0814405
0.0817736
0.0801035
0.0767932
0.0722926
0.0670708
0.061561
0.0561201
0.0510097
0.0463969
0.0423731
0.0389821
0.0362522
0.0342288
0.033003
0.0327326
0.0336435
0.0359944
0.0399966
0.0365273
0.0397042
0.0442736
0.0500518
0.0565783
0.0632228
0.0693016
0.0742039
0.0774809
0.0788901
0.078406
0.0762055
0.0726262
0.0680996
0.0630734
0.0579439
0.0530157
0.048492
0.0444899
0.0410693
0.0382664
0.0361263
0.0347288
0.0342049
0.0347355
0.0365273
0.0358734
0.0371168
0.0395969
0.0433794
0.048344
0.0542044
0.0605155
0.0667197
0.0722145
0.0764341
0.0789403
0.0795076
0.0781683
0.0751963
0.0710291
0.0661608
0.0610463
0.056041
0.0513846
0.0472165
0.0436082
0.0405995
0.0382323
0.0365749
0.0357371
0.0358734
0.0372477
0.0369667
0.0377321
0.0397112
0.0429791
0.0475252
0.0532031
0.0596938
0.0664915
0.0729309
0.0782803
0.0818904
0.0833531
0.082599
0.0798909
0.0757208
0.0706651
0.0652568
0.0599098
0.0548994
0.0503826
0.0464368
0.0431014
0.0404122
0.0384277
0.0372477
0.0401893
0.0386244
0.0379607
0.0383819
0.0400387
0.0430804
0.0476003
0.0535656
0.0607324
0.0685765
0.0762988
0.0829471
0.0876409
0.0898081
0.0893262
0.0865066
0.0819496
0.0763509
0.0703405
0.0643952
0.0588227
0.0537912
0.0493779
0.0456161
0.0425348
0.0401893
0.0444912
0.0417321
0.0397989
0.03885
0.0390374
0.0405682
0.0436729
0.0485485
0.0552559
0.0635786
0.072905
0.0822245
0.0903059
0.0960171
0.0986482
0.0980818
0.0947465
0.0894076
0.0829152
0.0760108
0.0692344
0.0629191
0.0572359
0.0522541
0.0479974
0.0444912
0.0501433
0.046156
0.0429931
0.0407715
0.0396033
0.0396845
0.0412869
0.0447352
0.0503343
0.0582212
0.0681607
0.0793784
0.0905694
0.100162
0.106761
0.109558
0.108512
0.104243
0.097736
0.090025
0.0819701
0.0741688
0.0669696
0.0605357
0.0549219
0.0501433
0.0570364
0.0517129
0.0473014
0.0438412
0.0413925
0.0401027
0.0402169
0.0420869
0.0461475
0.0528168
0.0622905
0.0742623
0.0877118
0.100953
0.112022
0.119268
0.121849
0.119887
0.114269
0.106246
0.0970505
0.0876543
0.078702
0.0705311
0.0633076
0.0570364
0.0653052
0.0584464
0.0526845
0.047949
0.0442399
0.0416383
0.0403231
0.040599
0.0429136
0.0478266
0.0558744
0.0672892
0.0816325
0.0975499
0.112894
0.125279
0.132837
0.134771
0.131454
0.124109
0.11428
0.103405
0.0925497
0.0823934
0.0732597
0.0653052

VECTORS u double
-193.323 180.133 0.0
-193.244 179.17 0.0
-192.96 178.146 0.0
-192.556 177.09 0.0
-192.044 176.031 0.0
-191.438 175.019 0.0
-190.766 174.133 0.0
-190.086 173.483 0.0
-189.491 173.201 0.0
-189.094 173.393 0.0
-188.984 174.08 0.0
-189.18 175.167 0.0
-189.63 176.489 0.0
-190.239 177.877 0.0
-190.916 179.198 0.0
-191.585 180.365 0.0
-192.198 181.325 0.0
-192.725 182.05 0.0
-193.153 182.529 0.0
-193.479 182.762 0.0
-193.706 182.758 0.0
-193.841 182.532 0.0
-193.888 182.121 0.0
-193.841 181.529 0.0
-193.698 180.886 0.0
-193.323 180.133 0.0
-194.349 181.112 0.0
-194.21 180.187 0.0
-193.901 179.046 0.0
-193.48 177.898 0.0
-192.946 176.747 0.0
-192.303 175.622 0.0
-191.561 174.576 0.0
-190.756 173.696 0.0
-189.962 173.108 0.0
-189.299 172.956 0.0
-188.903 173.34 0.0
-188.865 174.244 0.0
-189.183 175.526 0.0
-189.77 176.988 0.0
-190.513 178.452 0.0
-191.307 179.793 0.0
-192.08 180.939 0.0
-192.783 181.849 0.0
-193.39 182.504 0.0
-193.889 182.903 0.0
-194.275 183.052 0.0
-194.563 182.973 0.0
-194.738 182.686 0.0
-194.886 182.241 0.0
-194.828 181.663 0.0
-194.349 181.112 0.0
-195.562 181.784 0.0
-195.266 180.974 0.0
-194.868 179.801 0.0
-194.403 178.595 0.0
-193.842 177.376 0.0
-193.173 176.169 0.0
-192.394 175.011 0.0
-191.519 173.961 0.0
-190.593 173.118 0.0
-189.71 172.626 0.0
-189.019 172.638 0.0
-188.675 173.238 0.0
-188.758 174.362 0.0
-189.231 175.821 0.0
-189.973 177.393 0.0
-190.852 178.904 0.0
-191.765 180.246 0.0
-192.639 181.36 0.0
-193.435 182.22 0.0
-194.128 182.817 0.0
-194.715 183.159 0.0
-195.185 183.254 0.0
-195.569 183.136 0.0
-195.84 182.807 0.0
-196.031 182.342 0.0
-195.562 181.784 0.0
-196.597 182.264 0.0
-196.258 181.472 0.0
-195.8 180.351 0.0
-195.293 179.138 0.0
-194.704 177.887 0.0
-194.015 176.631 0.0
-193.217 175.401 0.0
-192.31 174.239 0.0
-191.315 173.214 0.0
-190.289 172.439 0.0
-189.352 172.073 0.0
-188.68 172.277 0.0
-188.44 173.105 0.0
-188.688 174.44 0.0
-189.34 176.05 0.0
-190.248 177.704 0.0
-191.27 179.244 0.0
-192.307 180.579 0.0
-193.296 181.668 0.0
-194.202 182.493 0.0
-195.002 183.051 0.0
-195.699 183.351 0.0
-196.259 183.397 0.0
-196.721 183.204 0.0
-196.95 182.793 0.0
-196.597 182.264 0.0
-197.365 182.53 0.0
-197.067 181.786 0.0
-196.614 180.733 0.0
-196.093 179.545 0.0
-195.489 178.291 0.0
-194.789 177.014 0.0
-193.982 175.745 0.0
-193.067 174.518 0.0
-192.047 173.38 0.0
-190.951 172.406 0.0
-189.853 171.725 0.0
-188.901 171.513 0.0
-188.3 171.926 0.0
-188.216 172.981 0.0
-188.663 174.507 0.0
-189.515 176.24 0.0
-190.601 177.956 0.0
-191.778 179.515 0.0
-192.956 180.846 0.0
-194.073 181.913 0.0
-195.102 182.705 0.0
-196.006 183.211 0.0
-196.769 183.435 0.0
-197.349 183.362 0.0
-197.684 183.03 0.0
-197.365 182.53 0.0
-197.912 182.599 0.0
-197.686 181.93 0.0
-197.272 180.962 0.0
-196.764 179.826 0.0
-196.164 178.596 0.0
-195.464 177.322 0.0
-194.659 176.042 0.0
-193.747 174.787 0.0
-192.727 173.589 0.0
-191.612 172.499 0.0
-190.439 171.601 0.0
-189.304 171.038 0.0
-188.385 170.998 0.0
-187.909 171.627 0.0
-188.027 172.896 0.0
-188.705 174.584 0.0
-189.774 176.414 0.0
-191.049 178.173 0.0
-192.389 179.739 0.0
-193.71 181.052 0.0
-194.946 182.078 0.0
-196.06 182.798 0.0
-196.992 183.197 0.0
-197.72 183.263 0.0
-198.14 183.024 0.0
-197.912 182.599 0.0
-198.206 182.457 0.0
-198.084 181.903 0.0
-197.741 181.043 0.0
-197.276 179.985 0.0
-196.701 178.805 0.0
-196.017 177.56 0.0
-195.225 176.294 0.0
-194.324 175.039 0.0
-193.318 173.824 0.0
-192.212 172.682 0.0
-191.024 171.666 0.0
-189.803 170.867 0.0
-188.671 170.441 0.0
-187.836 170.583 0.0
-187.54 171.419 0.0
-187.9 172.874 0.0
-188.828 174.688 0.0
-190.119 176.579 0.0
-191.578 178.35 0.0
-193.066 179.891 0.0
-194.495 181.144 0.0
-195.792 182.074 0.0
-196.9 182.659 0.0
-197.768 182.879 0.0
-198.315 182.77 0.0
-198.206 182.457 0.0
-198.223 182.098 0.0
-198.237 181.693 0.0
-197.995 180.969 0.0
-197.601 180.019 0.0
-197.075 178.918 0.0
-196.427 177.73 0.0
-195.661 176.503 0.0
-194.783 175.275 0.0
-193.799 174.075 0.0
-192.716 172.929 0.0
-191.544 171.871 0.0
-190.308 170.952 0.0
-189.076 170.272 0.0
-187.992 169.994 0.0
-187.294 170.312 0.0
-187.222 171.328 0.0
-187.847 172.921 0.0
-189.025 174.807 0.0
-190.518 176.706 0.0
-192.128 178.438 0.0
-193.713 179.899 0.0
-195.181 181.034 0.0
-196.453 181.811 0.0
-197.481 182.208 0.0
-198.175 182.259 0.0
-198.223 182.098 0.0
-197.942 181.513 0.0
-198.119 181.287 0.0
-198.008 180.729 0.0
-197.714 179.919 0.0
-197.264 178.93 0.0
-196.673 177.829 0.0
-195.951 176.669 0.0
-195.11 175.495 0.0
-194.159 174.338 0.0
-193.109 173.224 0.0
-191.968 172.176 0.0
-190.755 171.226 0.0
-189.504 170.427 0.0
-188.299 169.878 0.0
-187.31 169.745 0.0
-186.794 170.213 0.0
-186.971 171.355 0.0
-187.857 173.016 0.0
-189.253 174.9 0.0
-190.901 176.742 0.0
-192.601 178.372 0.0
-194.214 179.696 0.0
-195.648 180.667 0.0
-196.841 181.256 0.0
-197.708 181.494 0.0
-197.942 181.513 0.0
-197.348 180.704 0.0
-197.714 180.678 0.0
-197.762 180.312 0.0
-197.596 179.672 0.0
-197.249 178.828 0.0
-196.739 177.846 0.0
-196.083 176.785 0.0
-195.295 175.693 0.0
-194.391 174.607 0.0
-193.383 173.555 0.0
-192.286 172.558 0.0
-191.113 171.636 0.0
-189.888 170.816 0.0
-188.657 170.149 0.0
-187.519 169.73 0.0
-186.666 169.719 0.0
-186.358 170.286 0.0
-186.781 171.476 0.0
-187.89 173.116 0.0
-189.448 174.92 0.0
-191.187 176.636 0.0
-192.912 178.111 0.0
-194.494 179.262 0.0
-195.855 180.048 0.0
-196.905 180.487 0.0
-197.348 180.704 0.0
-196.439 179.685 0.0
-197.013 179.868 0.0
-197.244 179.712 0.0
-197.232 179.268 0.0
-197.013 178.599 0.0
-196.61 177.769 0.0
-196.042 176.839 0.0
-195.329 175.86 0.0
-194.488 174.874 0.0
-193.538 173.913 0.0
-192.494 172.998 0.0
-191.374 172.145 0.0
-190.197 171.368 0.0
-188.992 170.689 0.0
-187.816 170.152 0.0
-186.783 169.845 0.0
-186.092 169.912 0.0
-185.993 170.505 0.0
-186.628 171.651 0.0
-187.902 173.182 0.0
-189.554 174.832 0.0
-191.323 176.371 0.0
-193.022 177.662 0.0
-194.54 178.626 0.0
-195.776 179.265 0.0
-196.439 179.685 0.0
-195.226 178.487 0.0
-196.018 178.874 0.0
-196.45 178.934 0.0
-196.615 178.703 0.0
-196.549 178.234 0.0
-196.276 177.585 0.0
-195.82 176.817 0.0
-195.203 175.983 0.0
-194.446 175.128 0.0
-193.57 174.287 0.0
-192.596 173.481 0.0
-191.541 172.727 0.0
-190.426 172.034 0.0
-189.275 171.409 0.0
-188.123 170.866 0.0
-187.034 170.44 0.0
-186.131 170.206 0.0
-185.613 170.292 0.0
-185.701 170.831 0.0
-186.495 171.848 0.0
-187.866 173.195 0.0
-189.55 174.638 0.0
-191.297 175.972 0.0
-192.939 177.065 0.0
-194.344 177.877 0.0
-195.226 178.487 0.0
-193.743 177.165 0.0
-194.75 177.733 0.0
-195.391 177.999 0.0
-195.749 177.985 0.0
-195.855 177.73 0.0
-195.734 177.285 0.0
-195.412 176.707 0.0
-194.913 176.048 0.0
-194.261 175.354 0.0
-193.48 174.66 0.0
-192.592 173.992 0.0
-191.617 173.362 0.0
-190.579 172.78 0.0
-189.498 172.245 0.0
-188.402 171.761 0.0
-187.333 171.331 0.0
-186.359 170.982 0.0
-185.604 170.773 0.0
-185.251 170.816 0.0
-185.489 171.231 0.0
-186.38 172.052 0.0
-187.783 173.164 0.0
-189.443 174.369 0.0
-191.131 175.482 0.0
-192.664 176.404 0.0
-193.743 177.165 0.0
-192.056 175.809 0.0
-193.254 176.507 0.0
-194.098 176.95 0.0
-194.652 177.139 0.0
-194.942 177.099 0.0
-194.99 176.87 0.0
-194.821 176.501 0.0
-194.46 176.042 0.0
-193.934 175.536 0.0
-193.268 175.018 0.0
-192.485 174.512 0.0
-191.609 174.03 0.0
-190.662 173.58 0.0
-189.667 173.159 0.0
-188.649 172.765 0.0
-187.638 172.39 0.0
-186.679 172.036 0.0
-185.841 171.719 0.0
-185.24 171.487 0.0
-185.035 171.437 0.0
-185.378 171.681 0.0
-186.305 172.265 0.0
-187.677 173.115 0.0
-189.263 174.066 0.0
-190.833 174.974 0.0
-192.056 175.809 0.0
-190.286 174.561 0.0
-191.614 175.297 0.0
-192.627 175.857 0.0
-193.365 176.214 0.0
-193.839 176.371 0.0
-194.063 176.356 0.0
-194.06 176.205 0.0
-193.854 175.962 0.0
-193.472 175.665 0.0
-192.94 175.345 0.0
-192.282 175.024 0.0
-191.523 174.711 0.0
-190.685 174.411 0.0
-189.792 174.12 0.0
-188.868 173.832 0.0
-187.941 173.54 0.0
-187.042 173.233 0.0
-186.216 172.91 0.0
-185.528 172.58 0.0
-185.075 172.286 0.0
-184.991 172.11 0.0
-185.392 172.16 0.0
-186.296 172.496 0.0
-187.58 173.074 0.0
-189.029 173.785 0.0
-190.286 174.561 0.0
-188.63 173.614 0.0
-189.974 174.252 0.0
-191.082 174.829 0.0
-191.962 175.285 0.0
-192.599 175.599 0.0
-192.993 175.774 0.0
-193.159 175.834 0.0
-193.117 175.81 0.0
-192.892 175.734 0.0
-192.51 175.629 0.0
-191.995 175.51 0.0
-191.371 175.384 0.0
-190.661 175.248 0.0
-189.887 175.099 0.0
-189.073 174.929 0.0
-188.246 174.73 0.0
-187.434 174.491 0.0
-186.669 174.205 0.0
-185.99 173.869 0.0
-185.452 173.491 0.0
-185.134 173.108 0.0
-185.137 172.794 0.0
-185.548 172.649 0.0
-186.376 172.742 0.0
-187.509 173.074 0.0
-188.63 173.614 0.0
-187.348 173.17 0.0
-188.544 173.549 0.0
-189.625 174.007 0.0
-190.562 174.46 0.0
-191.31 174.856 0.0
-191.845 175.175 0.0
-192.166 175.419 0.0