# vtk DataFile Version 2.0
Particulate Flow Equations Solution
ASCII
DATASET STRUCTURED_GRID
DIMENSIONS 26 26 1
POINTS 676 double
-10 -10 0
-9.23077 -10 0
-8.46154 -10 0
-7.69231 -10 0
-6.92308 -10 0
-6.15385 -10 0
-5.38462 -10 0
-4.61538 -10 0
-3.84615 -10 0
-3.07692 -10 0
-2.30769 -10 0
-1.53846 -10 0
-0.769231 -10 0
5.55112e-016 -10 0
0.769231 -10 0
1.53846 -10 0
2.30769 -10 0
3.07692 -10 0
3.84615 -10 0
4.61538 -10 0
5.38462 -10 0
6.15385 -10 0
6.92308 -10 0
7.69231 -10 0
8.46154 -10 0
10 -10 0
-10 -9.23077 0
-9.23077 -9.23077 0
-8.46154 -9.23077 0
-7.69231 -9.23077 0
-6.92308 -9.23077 0
-6.15385 -9.23077 0
-5.38462 -9.23077 0
-4.61538 -9.23077 0
-3.84615 -9.23077 0
-3.07692 -9.23077 0
-2.30769 -9.23077 0
-1.53846 -9.23077 0
-0.769231 -9.23077 0
5.55112e-016 -9.23077 0
0.769231 -9.23077 0
1.53846 -9.23077 0
2.30769 -9.23077 0
3.07692 -9.23077 0
3.84615 -9.23077 0
4.61538 -9.23077 0
5.38462 -9.23077 0
6.15385 -9.23077 0
6.92308 -9.23077 0
7.69231 -9.23077 0
8.46154 -9.23077 0
10 -9.23077 0
-10 -8.46154 0
-9.23077 -8.46154 0
-8.46154 -8.46154 0
-7.69231 -8.46154 0
-6.92308 -8.46154 0
-6.15385 -8.46154 0
-5.38462 -8.46154 0
-4.61538 -8.46154 0
-3.84615 -8.46154 0
-3.07692 -8.46154 0
-2.30769 -8.46154 0
-1.53846 -8.46154 0
-0.769231 -8.46154 0
5.55112e-016 -8.46154 0
0.769231 -8.46154 0
1.53846 -8.46154 0
2.30769 -8.46154 0
3.07692 -8.46154 0
3.84615 -8.46154 0
4.61538 -8.46154 0
5.38462 -8.46154 0
6.15385 -8.46154 0
6.92308 -8.46154 0
7.69231 -8.46154 0
8.46154 -8.46154 0
10 -8.46154 0
-10 -7.69231 0
-9.23077 -7.69231 0
-8.46154 -7.69231 0
-7.69231 -7.69231 0
-6.92308 -7.69231 0
-6.15385 -7.69231 0
-5.38462 -7.69231 0
-4.61538 -7.69231 0
-3.84615 -7.69231 0
-3.07692 -7.69231 0
-2.30769 -7.69231 0
-1.53846 -7.69231 0
-0.769231 -7.69231 0
5.55112e-016 -7.69231 0
0.769231 -7.69231 0
1.53846 -7.69231 0
2.30769 -7.69231 0
3.07692 -7.69231 0
3.84615 -7.69231 0
4.61538 -7.69231 0
5.38462 -7.69231 0
6.15385 -7.69231 0
6.92308 -7.69231 0
7.69231 -7.69231 0
8.46154 -7.69231 0
10 -7.69231 0
-10 -6.92308 0
-9.23077 -6.92308 0
-8.46154 -6.92308 0
-7.69231 -6.92308 0
-6.92308 -6.92308 0
-6.15385 -6.92308 0
-5.38462 -6.92308 0
-4.61538 -6.92308 0
-3.84615 -6.92308 0
-3.07692 -6.92308 0
-2.30769 -6.92308 0
-1.53846 -6.92308 0
-0.769231 -6.92308 0
5.55112e-016 -6.92308 0
0.769231 -6.92308 0
1.53846 -6.92308 0
2.30769 -6.92308 0
3.07692 -6.92308 0
3.84615 -6.92308 0
4.61538 -6.92308 0
5.38462 -6.92308 0
6.15385 -6.92308 0
6.92308 -6.92308 0
7.69231 -6.92308 0
8.46154 -6.92308 0
10 -6.92308 0
-10 -6.15385 0
-9.23077 -6.15385 0
-8.46154 -6.15385 0
-7.69231 -6.15385 0
-6.92308 -6.15385 0
-6.15385 -6.15385 0
-5.38462 -6.15385 0
-4.61538 -6.15385 0
-3.84615 -6.15385 0
-3.07692 -6.15385 0
-2.30769 -6.15385 0
-1.53846 -6.15385 0
-0.769231 -6.15385 0
5.55112e-016 -6.15385 0
0.769231 -6.15385 0
1.53846 -6.15385 0
2.30769 -6.15385 0
3.07692 -6.15385 0
3.84615 -6.15385 0
4.61538 -6.15385 0
5.38462 -6.15385 0
6.15385 -6.15385 0
6.92308 -6.15385 0
7.69231 -6.15385 0
8.46154 -6.15385 0
10 -6.15385 0
-10 -5.38462 0
-9.23077 -5.38462 0
-8.46154 -5.38462 0
-7.69231 -5.38462 0
-6.92308 -5.38462 0
-6.15385 -5.38462 0
-5.38462 -5.38462 0
-4.61538 -5.38462 0
-3.84615 -5.38462 0
-3.07692 -5.38462 0
-2.30769 -5.38462 0
-1.53846 -5.38462 0
-0.769231 -5.38462 0
5.55112e-016 -5.38462 0
0.769231 -5.38462 0
1.53846 -5.38462 0
2.30769 -5.38462 0
3.07692 -5.38462 0
3.84615 -5.38462 0
4.61538 -5.38462 0
5.38462 -5.38462 0
6.15385 -5.38462 0
6.92308 -5.38462 0
7.69231 -5.38462 0
8.46154 -5.38462 0
10 -5.38462 0
-10 -4.61538 0
-9.23077 -4.61538 0
-8.46154 -4.61538 0
-7.69231 -4.61538 0
-6.92308 -4.61538 0
-6.15385 -4.61538 0
-5.38462 -4.61538 0
-4.61538 -4.61538 0
-3.84615 -4.61538 0
-3.07692 -4.61538 0
-2.30769 -4.61538 0
-1.53846 -4.61538 0
-0.769231 -4.61538 0
5.55112e-016 -4.61538 0
0.769231 -4.61538 0
1.53846 -4.61538 0
2.30769 -4.61538 0
3.07692 -4.61538 0
3.84615 -4.61538 0
4.61538 -4.61538 0
5.38462 -4.61538 0
6.15385 -4.61538 0
6.92308 -4.61538 0
7.69231 -4.61538 0
8.46154 -4.61538 0
10 -4.61538 0
-10 -3.84615 0
-9.23077 -3.84615 0
-8.46154 -3.84615 0
-7.69231 -3.84615 0
-6.92308 -3.84615 0
-6.15385 -3.84615 0
-5.38462 -3.84615 0
-4.61538 -3.84615 0
-3.84615 -3.84615 0
-3.07692 -3.84615 0
-2.30769 -3.84615 0
-1.53846 -3.84615 0
-0.769231 -3.84615 0
5.55112e-016 -3.84615 0
0.769231 -3.84615 0
1.53846 -3.84615 0
2.30769 -3.84615 0
3.07692 -3.84615 0
3.84615 -3.84615 0
4.61538 -3.84615 0
5.38462 -3.84615 0
6.15385 -3.84615 0
6.92308 -3.84615 0
7.69231 -3.84615 0
8.46154 -3.84615 0
10 -3.84615 0
-10 -3.07692 0
-9.23077 -3.07692 0
-8.46154 -3.07692 0
-7.69231 -3.07692 0
-6.92308 -3.07692 0
-6.15385 -3.07692 0
-5.38462 -3.07692 0
-4.61538 -3.07692 0
-3.84615 -3.07692 0
-3.07692 -3.07692 0
-2.30769 -3.07692 0
-1.53846 -3.07692 0
-0.769231 -3.07692 0
5.55112e-016 -3.07692 0
0.769231 -3.07692 0
1.53846 -3.07692 0
2.30769 -3.07692 0
3.07692 -3.07692 0
3.84615 -3.07692 0
4.61538 -3.07692 0
5.38462 -3.07692 0
6.15385 -3.07692 0
6.92308 -3.07692 0
7.69231 -3.07692 0
8.46154 -3.07692 0
10 -3.07692 0
-10 -2.30769 0
-9.23077 -2.30769 0
-8.46154 -2.30769 0
-7.69231 -2.30769 0
-6.92308 -2.30769 0
-6.15385 -2.30769 0
-5.38462 -2.30769 0
-4.61538 -2.30769 0
-3.84615 -2.30769 0
-3.07692 -2.30769 0
-2.30769 -2.30769 0
-1.53846 -2.30769 0
-0.769231 -2.30769 0
5.55112e-016 -2.30769 0
0.769231 -2.30769 0
1.53846 -2.30769 0
2.30769 -2.30769 0
3.07692 -2.30769 0
3.84615 -2.30769 0
4.61538 -2.30769 0
5.38462 -2.30769 0
6.15385 -2.30769 0
6.92308 -2.30769 0
7.69231 -2.30769 0
8.46154 -2.30769 0
10 -2.30769 0
-10 -1.53846 0
-9.23077 -1.53846 0
-8.46154 -1.53846 0
-7.69231 -1.53846 0
-6.92308 -1.53846 0
-6.15385 -1.53846 0
-5.38462 -1.53846 0
-4.61538 -1.53846 0
-3.84615 -1.53846 0
-3.07692 -1.53846 0
-2.30769 -1.53846 0
-1.53846 -1.53846 0
-0.769231 -1.53846 0
5.55112e-016 -1.53846 0
0.769231 -1.53846 0
1.53846 -1.53846 0
2.30769 -1.53846 0
3.07692 -1.53846 0
3.84615 -1.53846 0
4.61538 -1.53846 0
5.38462 -1.53846 0
6.15385 -1.53846 0
6.92308 -1.53846 0
7.69231 -1.53846 0
8.46154 -1.53846 0
10 -1.53846 0
-10 -0.769231 0
-9.23077 -0.769231 0
-8.46154 -0.769231 0
-7.69231 -0.769231 0
-6.92308 -0.769231 0
-6.15385 -0.769231 0
-5.38462 -0.769231 0
-4.61538 -0.769231 0
-3.84615 -0.769231 0
-3.07692 -0.769231 0
-2.30769 -0.769231 0
-1.53846 -0.769231 0
-0.769231 -0.769231 0
5.55112e-016 -0.769231 0
0.769231 -0.769231 0
1.53846 -0.769231 0
2.30769 -0.769231 0
3.07692 -0.769231 0
3.84615 -0.769231 0
4.61538 -0.769231 0
5.38462 -0.769231 0
6.15385 -0.769231 0
6.92308 -0.769231 0
7.69231 -0.769231 0
8.46154 -0.769231 0
10 -0.769231 0
-10 5.55112e-016 0
-9.23077 5.55112e-016 0
-8.46154 5.55112e-016 0
-7.69231 5.55112e-016 0
-6.92308 5.55112e-016 0
-6.15385 5.55112e-016 0
-5.38462 5.55112e-016 0
-4.61538 5.55112e-016 0
-3.84615 5.55112e-016 0
-3.07692 5.55112e-016 0
-2.30769 5.55112e-016 0
-1.53846 5.55112e-016 0
-0.769231 5.55112e-016 0
5.55112e-016 5.55112e-016 0
0.769231 5.55112e-016 0
1.53846 5.55112e-016 0
2.30769 5.55112e-016 0
3.07692 5.55112e-016 0
3.84615 5.55112e-016 0
4.61538 5.55112e-016 0
5.38462 5.55112e-016 0
6.15385 5.55112e-016 0
6.92308 5.55112e-016 0
7.69231 5.55112e-016 0
8.46154 5.55112e-016 0
10 5.55112e-016 0
-10 0.769231 0
-9.23077 0.769231 0
-8.46154 0.769231 0
-7.69231 0.769231 0
-6.92308 0.769231 0
-6.15385 0.769231 0
-5.38462 0.769231 0
-4.61538 0.769231 0
-3.84615 0.769231 0
-3.07692 0.769231 0
-2.30769 0.769231 0
-1.53846 0.769231 0
-0.769231 0.769231 0
5.55112e-016 0.769231 0
0.769231 0.769231 0
1.53846 0.769231 0
2.30769 0.769231 0
3.07692 0.769231 0
3.84615 0.769231 0
4.61538 0.769231 0
5.38462 0.769231 0
6.15385 0.769231 0
6.92308 0.769231 0
7.69231 0.769231 0
8.46154 0.769231 0
10 0.769231 0
-10 1.53846 0
-9.23077 1.53846 0
-8.46154 1.53846 0
-7.69231 1.53846 0
-6.92308 1.53846 0
-6.15385 1.53846 0
-5.38462 1.53846 0
-4.61538 1.53846 0
-3.84615 1.53846 0
-3.07692 1.53846 0
-2.30769 1.53846 0
-1.53846 1.53846 0
-0.769231 1.53846 0
5.55112e-016 1.53846 0
0.769231 1.53846 0
1.53846 1.53846 0
2.30769 1.53846 0
3.07692 1.53846 0
3.84615 1.53846 0
4.61538 1.53846 0
5.38462 1.53846 0
6.15385 1.53846 0
6.92308 1.53846 0
7.69231 1.53846 0
8.46154 1.53846 0
10 1.53846 0
-10 2.30769 0
-9.23077 2.30769 0
-8.46154 2.30769 0
-7.69231 2.30769 0
-6.92308 2.30769 0
-6.15385 2.30769 0
-5.38462 2.30769 0
-4.61538 2.30769 0
-3.84615 2.30769 0
-3.07692 2.30769 0
-2.30769 2.30769 0
-1.53846 2.30769 0
-0.769231 2.30769 0
5.55112e-016 2.30769 0
0.769231 2.30769 0
1.53846 2.30769 0
2.30769 2.30769 0
3.07692 2.30769 0
3.84615 2.30769 0
4.61538 2.30769 0
5.38462 2.30769 0
6.15385 2.30769 0
6.92308 2.30769 0
7.69231 2.30769 0
8.46154 2.30769 0
10 2.30769 0
-10 3.07692 0
-9.23077 3.07692 0
-8.46154 3.07692 0
-7.69231 3.07692 0
-6.92308 3.07692 0
-6.15385 3.07692 0
-5.38462 3.07692 0
-4.61538 3.07692 0
-3.84615 3.07692 0
-3.07692 3.07692 0
-2.30769 3.07692 0
-1.53846 3.07692 0
-0.769231 3.07692 0
5.55112e-016 3.07692 0
0.769231 3.07692 0
1.53846 3.07692 0
2.30769 3.07692 0
3.07692 3.07692 0
3.84615 3.07692 0
4.61538 3.07692 0
5.38462 3.07692 0
6.15385 3.07692 0
6.92308 3.07692 0
7.69231 3.07692 0
8.46154 3.07692 0
10 3.07692 0
-10 3.84615 0
-9.23077 3.84615 0
-8.46154 3.84615 0
-7.69231 3.84615 0
-6.92308 3.84615 0
-6.15385 3.84615 0
-5.38462 3.84615 0
-4.61538 3.84615 0
-3.84615 3.84615 0
-3.07692 3.84615 0
-2.30769 3.84615 0
-1.53846 3.84615 0
-0.769231 3.84615 0
5.55112e-016 3.84615 0
0.769231 3.84615 0
1.53846 3.84615 0
2.30769 3.84615 0
3.07692 3.84615 0
3.84615 3.84615 0
4.61538 3.84615 0
5.38462 3.84615 0
6.15385 3.84615 0
6.92308 3.84615 0
7.69231 3.84615 0
8.46154 3.84615 0
10 3.84615 0
-10 4.61538 0
-9.23077 4.61538 0
-8.46154 4.61538 0
-7.69231 4.61538 0
-6.92308 4.61538 0
-6.15385 4.61538 0
-5.38462 4.61538 0
-4.61538 4.61538 0
-3.84615 4.61538 0
-3.07692 4.61538 0
-2.30769 4.61538 0
-1.53846 4.61538 0
-0.769231 4.61538 0
5.55112e-016 4.61538 0
0.769231 4.61538 0
1.53846 4.61538 0
2.30769 4.61538 0
3.07692 4.61538 0
3.84615 4.61538 0
4.61538 4.61538 0
5.38462 4.61538 0
6.15385 4.61538 0
6.92308 4.61538 0
7.69231 4.61538 0
8.46154 4.61538 0
10 4.61538 0
-10 5.38462 0
-9.23077 5.38462 0
-8.46154 5.38462 0
-7.69231 5.38462 0
-6.92308 5.38462 0
-6.15385 5.38462 0
-5.38462 5.38462 0
-4.61538 5.38462 0
-3.84615 5.38462 0
-3.07692 5.38462 0
-2.30769 5.38462 0
-1.53846 5.38462 0
-0.769231 5.38462 0
5.55112e-016 5.38462 0
0.769231 5.38462 0
1.53846 5.38462 0
2.30769 5.38462 0
3.07692 5.38462 0
3.84615 5.38462 0
4.61538 5.38462 0
5.38462 5.38462 0
6.15385 5.38462 0
6.92308 5.38462 0
7.69231 5.38462 0
8.46154 5.38462 0
10 5.38462 0
-10 6.15385 0
-9.23077 6.15385 0
-8.46154 6.15385 0
-7.69231 6.15385 0
-6.92308 6.15385 0
-6.15385 6.15385 0
-5.38462 6.15385 0
-4.61538 6.15385 0
-3.84615 6.15385 0
-3.07692 6.15385 0
-2.30769 6.15385 0
-1.53846 6.15385 0
-0.769231 6.15385 0
5.55112e-016 6.15385 0
0.769231 6.15385 0
1.53846 6.15385 0
2.30769 6.15385 0
3.07692 6.15385 0
3.84615 6.15385 0
4.61538 6.15385 0
5.38462 6.15385 0
6.15385 6.15385 0
6.92308 6.15385 0
7.69231 6.15385 0
8.46154 6.15385 0
10 6.15385 0
-10 6.92308 0
-9.23077 6.92308 0
-8.46154 6.92308 0
-7.69231 6.92308 0
-6.92308 6.92308 0
-6.15385 6.92308 0
-5.38462 6.92308 0
-4.61538 6.92308 0
-3.84615 6.92308 0
-3.07692 6.92308 0
-2.30769 6.92308 0
-1.53846 6.92308 0
-0.769231 6.92308 0
5.55112e-016 6.92308 0
0.769231 6.92308 0
1.53846 6.92308 0
2.30769 6.92308 0
3.07692 6.92308 0
3.84615 6.92308 0
4.61538 6.92308 0
5.38462 6.92308 0
6.15385 6.92308 0
6.92308 6.92308 0
7.69231 6.92308 0
8.46154 6.92308 0
10 6.92308 0
-10 7.69231 0
-9.23077 7.69231 0
-8.46154 7.69231 0
-7.69231 7.69231 0
-6.92308 7.69231 0
-6.15385 7.69231 0
-5.38462 7.69231 0
-4.61538 7.69231 0
-3.84615 7.69231 0
-3.07692 7.69231 0
-2.30769 7.69231 0
-1.53846 7.69231 0
-0.769231 7.69231 0
5.55112e-016 7.69231 0
0.769231 7.69231 0
1.53846 7.69231 0
2.30769 7.69231 0
3.07692 7.69231 0
3.84615 7.69231 0
4.61538 7.69231 0
5.38462 7.69231 0
6.15385 7.69231 0
6.92308 7.69231 0
7.69231 7.69231 0
8.46154 7.69231 0
10 7.69231 0
-10 8.46154 0
-9.23077 8.46154 0
-8.46154 8.46154 0
-7.69231 8.46154 0
-6.92308 8.46154 0
-6.15385 8.46154 0
-5.38462 8.46154 0
-4.61538 8.46154 0
-3.84615 8.46154 0
-3.07692 8.46154 0
-2.30769 8.46154 0
-1.53846 8.46154 0
-0.769231 8.46154 0
5.55112e-016 8.46154 0
0.769231 8.46154 0
1.53846 8.46154 0
2.30769 8.46154 0
3.07692 8.46154 0
3.84615 8.46154 0
4.61538 8.46154 0
5.38462 8.46154 0
6.15385 8.46154 0
6.92308 8.46154 0
7.69231 8.46154 0
8.46154 8.46154 0
10 8.46154 0
-10 10 0
-9.23077 10 0
-8.46154 10 0
-7.69231 10 0
-6.92308 10 0
-6.15385 10 0
-5.38462 10 0
-4.61538 10 0
-3.84615 10 0
-3.07692 10 0
-2.30769 10 0
-1.53846 10 0
-0.769231 10 0
5.55112e-016 10 0
0.769231 10 0
1.53846 10 0
2.30769 10 0
3.07692 10 0
3.84615 10 0
4.61538 10 0
5.38462 10 0
6.15385 10 0
6.92308 10 0
7.69231 10 0
8.46154 10 0
10 10 0

POINT_DATA 676
SCALARS h double 1
LOOkUP_TABLE default
0.0017358
0.011151
0.0647981
0.219278
0.351348
0.395154
0.378358
0.329389
0.286259
0.317105
0.506904
0.908547
1.50693
2.18973
2.72707
2.86142
2.50415
1.82986
1.13037
0.601658
0.280825
0.115377
0.0405065
0.0108908
0.00150142
0.0017358
0.00144712
0.00972081
0.0593972
0.223475
0.384478
0.448122
0.437919
0.381615
0.313124
0.29473
0.409068
0.734761
1.31308
2.0853
2.82033
3.17229
2.92859
2.21574
1.38731
0.730974
0.32969
0.128265
0.0422286
0.0107182
0.00143375
0.00144712
0.00103662
0.00683426
0.042108
0.1741
0.315485
0.367714
0.355366
0.305396
0.238105
0.190912
0.214735
0.370784
0.718593
1.26303
1.8732
2.27379
2.22168
1.7392
1.09825
0.567523
0.243921
0.0881727
0.0266291
0.00627931
0.000833287
0.00103662
0.000613094
0.00388313
0.0238737
0.105947
0.201014
0.225909
0.206659
0.171268
0.128174
0.0902704
0.0775404
0.117951
0.249159
0.491361
0.803988
1.0577
1.09859
0.893391
0.570669
0.289815
0.118946
0.0401198
0.0112509
0.00255487
0.000377587
0.000613094
0.000298439
0.00189917
0.0119918
0.053954
0.1082
0.113313
0.0908342
0.0683305
0.0493997
0.0329179
0.022946
0.0265838
0.0578031
0.130583
0.238107
0.339138
0.374395
0.318098
0.208095
0.105953
0.0428248
0.0141404
0.00395426
0.00094457
0.000164759
0.000298439
0.000117591
0.000736711
0.00551074
0.0246602
0.053446
0.0517621
0.0325498
0.0186907
0.0126273
0.00930239
0.00890629
0.0115484
0.0182388
0.0321472
0.0570127
0.0853724
0.098425
0.0862105
0.0577678
0.0300263
0.0124124
0.00425249
0.00128182
0.000368266
0.00011758
0.000117591
0.00018951
0.000379904
0.00239951
0.0106224
0.025157
0.0233721
0.0106583
0.00311653
0.00184819
0.00216926
0.00424557
0.00749723
0.0117199
0.0159935
0.0197715
0.0234107
0.0251253
0.0216532
0.01426
0.0072824
0.00299372
0.00104984
0.000378044
0.000251785
0.000219528
0.00018951
5.65405e-006
0.000141164
0.00101722
0.00425069
0.0109719
0.0103779
0.00342943
0.000252291
0.000268836
0.00054022
0.00160913
0.00354629
0.00636909
0.00943828
0.0115891
0.0119013
0.0103137
0.00743082
0.00432434
0.00199337
0.000712651
0.000192785
5.85302e-005
7.32453e-005
4.80717e-005
5.65405e-006
0.00218862
0.00439508
0.00205789
0.00153471
0.00401983
0.0041641
0.000984159
7.74638e-005
0.000135267
0.000473929
0.00131038
0.00283321
0.00504555
0.007561
0.00960421
0.0102705
0.0090302
0.00618862
0.00290361
0.000722153
0.000265121
0.000248841
0.00047663
0.000870614
0.000576965
0.00218862
0.00646529
0.0116166
0.00291165
0.000636244
0.00112917
0.00141576
0.00027813
9.90317e-005
0.000203912
0.00056092
0.00137091
0.00278638
0.00471469
0.00671909
0.00812231
0.00824795
0.00676999
0.00413322
0.00151944
0.000403937
0.000349287
0.000930967
0.00191058
0.00353899
0.00247219
0.00646529
0.00998495
0.0171684
0.00340915
0.000402248
0.000493701
0.000611918
0.000281573
0.000264787
0.000427135
0.000824493
0.00158319
0.00276727
0.00419954
0.00541221
0.00582749
0.00504604
0.00314196
0.000992928
0.000373041
0.000199748
0.000445479
0.00132654
0.00415707
0.00787885
0.00527712
0.00998495
0.011021
0.0188326
0.00326297
0.000522245
0.000855944
0.000804659
0.00059921
0.000647636
0.000950479
0.00148144
0.00221261
0.00308076
0.0038861
0.00427652
0.00392101
0.00276427
0.00120318
0.000126413
1.26622e-005
4.853e-005
0.000294374
0.00169704
0.00675881
0.0126088
0.00793161
0.011021
0.0100702
0.0174854
0.00290812
0.00132768
0.00171406
0.00146135
0.00118488
0.0013592
0.0019503
0.0027549
0.00351327
0.00400793
0.00409921
0.00370065
0.00280754
0.00160822
0.000521772
9.3538e-006
7.91743e-006
1.51556e-005
0.000265682
0.00213426
0.00889929
0.0160964
0.00956667
0.0100702
0.00845694
0.0152688
0.00378253
0.00284411
0.00302325
0.00241722
0.00204206
0.00247844
0.00356829
0.00483017
0.00567385
0.00569976
0.00492537
0.00367032
0.00228829
0.00107703
0.000285087
1.65106e-006
4.11128e-006
1.30184e-005
0.000272623
0.0023968
0.0098483
0.0172726
0.00985013
0.00845694
0.00715337
0.0138897
0.00608904
0.00526916
0.00478942
0.00359105
0.00312083
0.00399139
0.00583238
0.00777418
0.00877402
0.00820953
0.00635878
0.00409006
0.00214882
0.000852265
0.000201868
1.31345e-005
3.17329e-006
8.12377e-006
0.000242834
0.00231209
0.00940439
0.0160918
0.00898161
0.00715337
0.00660324
0.0140586
0.00985828
0.00867957
0.00693995
0.00487
0.00432218
0.00582197
0.00869168
0.01155
0.0127766
0.011501
0.00835573
0.00488456
0.00226745
0.000792075
0.000180003
2.09077e-005
1.06257e-006
1.11924e-005
0.0002266
0.00204926
0.00810373
0.0134507
0.00753405
0.00660324
0.00786489
0.0171929
0.0157166
0.0132357
0.00938992
0.00609385
0.00548676
0.00785484
0.0121137
0.0161845
0.0176679
0.0155061
0.0108528
0.00599888
0.00258237
0.000837287
0.000193924
2.90192e-005
6.80345e-006
1.63105e-005
0.000189821
0.0017004
0.00684699
0.0109941
0.00648679
0.00786489
0.0114357
0.0253014
0.0253553
0.0199216
0.0124756
0.0071522
0.00622723
0.00958686
0.0157109
0.0216817
0.0235254
0.0201868
0.0137628
0.00736876
0.00304796
0.000964668
0.000268964
4.00364e-005
7.08781e-006
2.46428e-005
0.000119573
0.00104565
0.00519416
0.00913438
0.00612012
0.0114357
0.0145847
0.0363694
0.0402277
0.0308005
0.0174699
0.00829196
0.00585594
0.00953499
0.0178341
0.0269757
0.0298463
0.0252693
0.0168692
0.00887128
0.00367658
0.00103743
0.000252355
0.000210877
5.24271e-005
8.63037e-006
4.79631e-005
0.000423995
0.00273828
0.0061625
0.0051266
0.0145847
0.013748
0.043137
0.0579822
0.0470239
0.0259706
0.0103445
0.00416612
0.00422075
0.0130965
0.0276702
0.034447
0.0296611
0.0196099
0.0100463
0.00417589
0.0016111
0.000240866
0.000164521
0.000142168
8.25939e-005
3.70038e-005
9.64548e-005
0.000593894
0.00240341
0.00289384
0.013748
0.0100029
0.0391836
0.0697568
0.0649011
0.037454
0.0135058
0.00250716
0.000816026
0.00439123
0.0184361
0.0334446
0.0304881
0.0195272
0.00852814
0.00326071
4.50485e-005
0.00130189
-0.000563984
-0.000208609
-0.000109415
0.000138906
2.82974e-005
9.35704e-005
0.000384422
0.00100959
0.0100029
0.00639872
0.0284059
0.0680136
0.0767581
0.0482557
0.0178719
0.00375583
0.000456248
0.00160893
0.00664456
0.0250282
0.0259731
0.0187449
0.0144101
0.0145409
0.0138408
0.0126784
0.00920508
0.00579751
0.00311814
0.00147445
0.000547016
8.02394e-005
0.000127543
0.000923217
0.00639872
0.00381392
0.018342
0.0570665
0.0854795
0.0694812
0.0418401
0.0253731
0.0175824
0.015067
0.0225489
0.0469775
0.0756525
0.103859
0.129572
0.145933
0.143611
0.121233
0.0870178
0.0538097
0.0292741
0.0142001
0.00605377
0.00207807
0.000520873
0.000643924
0.00381392
0.00252172
0.0132991
0.0540775
0.121591
0.143748
0.128764
0.106575
0.0871885
0.0800314
0.106319
0.191244
0.333494
0.505519
0.665682
0.761383
0.747215
0.62285
0.441761
0.270809
0.146835
0.0717025
0.0313973
0.0116957
0.00315215
0.000232708
0.00252172
0.00203754
0.0119284
0.0611079
0.178015
0.255672
0.266228
0.242381
0.207684
0.190812
0.243771
0.426902
0.754439
1.17503
1.58466
1.83995
1.81931
1.52073
1.07847
0.658962
0.35463
0.171198
0.0740773
0.0275599
0.00773837
0.00100034
0.00203754
0.0017358
0.011151
0.0647981
0.219278
0.351348
0.395154
0.378358
0.329389
0.286259
0.317105
0.506904
0.908547
1.50693
2.18973
2.72707
2.86142
2.50415
1.82986
1.13037
0.601658
0.280825
0.115377
0.0405065
0.0108908
0.00150142
0.0017358

VECTORS u double
40.1493 58.2312 0.0
8.69878 55.8791 0.0
-9.32182 57.6028 0.0
-23.1626 59.504 0.0
-32.4912 59.8134 0.0
-38.5365 58.8459 0.0
-41.6674 57.5777 0.0
-43.1097 56.1882 0.0
-44.6345 53.3882 0.0
-49.5083 47.6922 0.0
-57.3937 43.2061 0.0
-63.7093 43.1571 0.0
-68.2397 45.4207 0.0
-72.426 48.0232 0.0
-77.1596 50.0582 0.0
-82.5944 51.1461 0.0
-88.2509 51.1357 0.0
-93.2647 50.0124 0.0
-96.8021 47.8609 0.0
-98.4017 44.844 0.0
-98.0309 41.2088 0.0
-95.886 37.297 0.0
-92.0088 33.5256 0.0
-85.25 30.3622 0.0
-59.8777 29.5948 0.0
40.1493 58.2312 0.0
43.1589 61.3405 0.0
9.80511 55.8599 0.0
-8.77036 55.6775 0.0
-22.9616 55.9653 0.0
-32.0184 55.0371 0.0
-37.7147 53.0818 0.0
-40.7399 51.1955 0.0
-42.2684 49.5919 0.0
-43.5943 47.2152 0.0
-47.5425 42.2475 0.0
-55.677 37.1121 0.0
-62.6518 36.6558 0.0
-67.1291 39.0484 0.0
-71.0008 41.8007 0.0
-75.4213 43.8987 0.0
-80.6174 44.9205 0.0
-86.1586 44.6693 0.0
-91.2289 43.132 0.0
-95.0252 40.4525 0.0
-97.0844 36.8747 0.0
-97.3288 32.7043 0.0
-95.8725 28.3173 0.0
-92.6868 24.2016 0.0
-86.7212 21.0538 0.0
-64.5179 21.9048 0.0
43.1589 61.3405 0.0
44.6088 61.2898 0.0
12.0641 54.0738 0.0
-6.13946 52.4617 0.0
-21.1259 51.4089 0.0
-30.5343 49.4492 0.0
-36.3984 46.6572 0.0
-39.6189 44.2348 0.0
-41.3264 42.4924 0.0
-42.4849 40.5091 0.0
-45.155 36.5351 0.0
-52.9154 30.9548 0.0
-61.2746 29.551 0.0
-66.2341 31.714 0.0
-70.0043 34.3786 0.0
-74.1753 36.442 0.0
-79.1007 37.4759 0.0
-84.4299 37.2365 0.0
-89.422 35.6633 0.0
-93.3214 32.8841 0.0
-95.673 29.1541 0.0
-96.3711 24.7916 0.0
-95.471 20.1773 0.0
-92.8504 15.8464 0.0
-87.3177 12.705 0.0
-64.415 15.2547 0.0
44.6088 61.2898 0.0
45.4693 61.0489 0.0
14.9697 53.4107 0.0
-1.87941 50.8569 0.0
-17.4689 48.7976 0.0
-27.7084 45.9361 0.0
-34.1511 42.2513 0.0
-37.8916 39.1025 0.0
-39.9472 37.1168 0.0
-41.033 35.3719 0.0
-42.195 32.2725 0.0
-47.3875 26.7204 0.0
-57.1744 23.9528 0.0
-64.0746 25.738 0.0
-68.6111 28.2297 0.0
-72.9221 30.2069 0.0
-77.7203 31.2895 0.0
-82.8611 31.2317 0.0
-87.7327 29.933 0.0
-91.6473 27.4725 0.0
-94.1631 24.072 0.0
-95.1497 20.0356 0.0
-94.6133 15.7521 0.0
-92.36 11.8153 0.0
-87.103 9.28134 0.0
-64.8454 13.2629 0.0
45.4693 61.0489 0.0
45.0149 58.5539 0.0
17.9562 53.5117 0.0
2.70189 50.9951 0.0
-12.1837 48.4752 0.0
-23.4161 44.9373 0.0
-30.6037 40.2902 0.0
-35.1636 35.8942 0.0
-37.7603 33.1386 0.0
-38.5995 31.1226 0.0
-37.8391 27.9414 0.0
-36.3746 22.1117 0.0
-40.2653 17.736 0.0
-51.7333 19.7495 0.0
-61.9794 22.8177 0.0
-69.4636 25.0779 0.0
-75.5482 26.3749 0.0
-81.0645 26.6195 0.0
-86.0021 25.751 0.0
-89.9477 23.8278 0.0
-92.5443 21.04 0.0
-93.6493 17.6845 0.0
-93.1974 14.1877 0.0
-90.822 11.2276 0.0
-84.7058 9.9305 0.0
-60.8389 14.8742 0.0
45.0149 58.5539 0.0
26.1158 27.0805 0.0
18.2904 45.2355 0.0
7.49786 51.3578 0.0
-5.99231 49.4849 0.0
-17.9525 45.7432 0.0
-25.6964 40.3968 0.0
-31.1168 34.3007 0.0
-34.4867 29.6657 0.0
-33.7459 25.8587 0.0
-28.7425 19.3867 0.0
-21.2549 12.2315 0.0
-17.1348 9.7537 0.0
-20.0301 11.2499 0.0
-32.3465 14.8687 0.0
-49.9893 18.756 0.0
-65.0299 21.3122 0.0
-75.6304 22.4022 0.0
-82.8622 22.2378 0.0
-87.6664 20.9982 0.0
-90.4591 18.9098 0.0
-91.2912 16.2781 0.0
-89.7201 13.4728 0.0
-83.955 10.8498 0.0
-68.6751 8.6653 0.0
-34.9922 8.40406 0.0
26.1158 27.0805 0.0
11.8222 -1.44865 0.0
14.0299 3.11874 0.0
12.1624 45.4737 0.0
-0.0265096 49.7797 0.0
-11.9624 47.2034 0.0
-19.94 41.7356 0.0
-25.5613 34.072 0.0
-28.984 25.6509 0.0
-18.2165 16.559 0.0
-8.16267 4.25553 0.0
-12.7883 3.7469 0.0
-13.3554 5.53396 0.0
-12.4414 7.05664 0.0
-12.5024 8.70817 0.0
-17.0826 10.9683 0.0
-30.8442 13.9548 0.0
-50.6295 16.5906 0.0
-68.0814 17.9567 0.0
-79.7058 17.9991 0.0
-85.5803 16.8797 0.0
-86.0119 14.7464 0.0
-78.8755 11.4167 0.0
-55.4144 5.6225 0.0
-26.1966 0.352261 0.0
-19.9723 -0.037122 0.0
11.8222 -1.44865 0.0
-28.8465 -8.24471 0.0
28.8979 -6.22463 0.0
17.3732 21.8872 0.0
5.31329 44.1682 0.0
-6.15521 47.7383 0.0
-14.2794 43.0487 0.0
-19.3054 34.1372 0.0
-9.37582 11.7619 0.0
6.42047 2.32121 0.0
-5.89742 -0.637229 0.0
-13.811 3.35591 0.0
-13.6062 5.0604 0.0
-12.3388 6.22051 0.0
-10.9837 7.28399 0.0
-10.0706 8.29912 0.0
-10.9559 9.28577 0.0
-16.3641 10.2784 0.0
-28.7043 11.222 0.0
-46.5373 12.2226 0.0
-63.9891 13.1111 0.0
-73.7987 12.3067 0.0
-69.8042 7.25626 0.0
-37.2473 -9.42863 0.0
-19.9249 -10.0817 0.0
-21.5512 -9.60103 0.0
-28.8465 -8.24471 0.0
8.3787 8.33157 0.0
3.95195 8.51286 0.0
3.82021 8.37786 0.0
7.12591 26.4885 0.0
-1.2794 45.6481 0.0
-9.41049 43.2932 0.0
-13.1562 32.9904 0.0
7.50377 8.93379 0.0
-11.1873 3.7439 0.0
-15.4879 6.09653 0.0
-15.2441 6.92204 0.0
-14.2268 7.46919 0.0
-12.8005 7.83849 0.0
-11.219 8.11623 0.0
-9.79972 8.2814 0.0
-8.95694 8.21507 0.0
-9.02838 7.70174 0.0
-10.1393 6.467 0.0
-12.6964 4.63792 0.0
-24.6042 6.8097 0.0
-34.2509 9.65146 0.0
-15.1072 9.66483 0.0
-9.47712 11.0691 0.0
-10.6331 11.3521 0.0
-9.95734 10.9697 0.0
8.3787 8.33157 0.0
7.53012 9.23877 0.0
2.22133 9.53037 0.0
1.00067 9.20654 0.0
4.15504 11.7892 0.0
2.44326 38.4796 0.0
-5.2479 40.9955 0.0
-6.5265 28.7324 0.0
-7.81344 17.3942 0.0
-14.8033 12.7554 0.0
-15.7592 10.901 0.0
-15.3945 10.3045 0.0
-14.4497 9.9972 0.0
-13.0743 9.69773 0.0
-11.4605 9.31233 0.0
-9.93313 8.76049 0.0
-8.86416 7.9018 0.0
-8.39886 6.45126 0.0
-8.11228 3.75127 0.0
-6.87062 -1.04804 0.0
-7.33415 1.37633 0.0
-5.16997 8.65173 0.0
-8.20596 9.39133 0.0
-10.717 12.8065 0.0
-11.1356 13.2436 0.0
-10.271 12.7065 0.0
7.53012 9.23877 0.0
7.6153 10.019 0.0
1.64325 10.4023 0.0
-0.0197803 9.84374 0.0
3.01428 11.7929 0.0
1.99517 25.6511 0.0
-3.7919 32.457 0.0
-8.94392 26.5694 0.0
-13.3367 23.8097 0.0
-14.8627 20.4351 0.0
-15.3456 17.2486 0.0
-15.2384 14.8477 0.0
-14.5158 13.2088 0.0
-13.2714 11.9882 0.0
-11.7127 10.8833 0.0
-10.1769 9.68325 0.0
-9.01853 8.16724 0.0
-8.24684 5.83644 0.0
-5.5424 -1.53537 0.0
-4.97311 -5.02649 0.0
-5.99281 -3.59881 0.0
-2.40904 6.98586 0.0
-9.07162 11.0817 0.0
-10.8164 14.2963 0.0
-11.4893 14.6445 0.0
-11.0789 14.1227 0.0
7.6153 10.019 0.0
8.31818 10.8536 0.0
1.84909 11.3455 0.0
0.00556101 10.6028 0.0
0.365469 20.7633 0.0
-3.81143 26.8601 0.0
-8.32117 29.1042 0.0
-12.8119 28.3747 0.0
-14.665 26.8005 0.0
-15.0026 25.0021 0.0
-15.2375 22.7868 0.0
-15.1964 20.1883 0.0
-14.6325 17.6206 0.0
-13.5162 15.3607 0.0
-12.0322 13.3714 0.0
-10.5284 11.4535 0.0
-9.36487 9.34155 0.0
-8.53684 6.48368 0.0
1.34197 -14.1323 0.0
-0.507671 -8.05725 0.0
-5.17485 -5.67433 0.0
-4.37086 8.78769 0.0
-9.58826 13.944 0.0
-10.7405 15.4335 0.0
-11.835 15.7804 0.0
-12.0264 15.377 0.0
8.31818 10.8536 0.0
9.27333 11.8798 0.0
2.40795 12.4989 0.0
0.286945 12.6465 0.0
-3.79143 25.8764 0.0
-7.56239 29.8539 0.0
-11.5085 30.6282 0.0
-14.589 29.8141 0.0
-15.3237 28.5935 0.0
-15.3682 27.691 0.0
-15.5179 26.5018 0.0
-15.4641 24.7141 0.0
-14.9578 22.3517 0.0
-13.9148 19.6608 0.0
-12.48 16.9256 0.0
-11.0006 14.252 0.0
-9.85031 11.5129 0.0
-9.0822 8.25869 0.0
7.68784 -23.6901 0.0
-5.29908 -3.4023 0.0
0.947721 9.49406 0.0
-4.22573 11.3898 0.0
-9.00251 15.2302 0.0
-10.7008 16.2881 0.0
-12.1659 16.6986 0.0
-12.8931 16.4438 0.0
9.27333 11.8798 0.0
10.046 13.3045 0.0
2.75153 14.2033 0.0
-1.16303 18.5577 0.0
-7.17792 29.745 0.0
-10.4291 32.1152 0.0
-13.6485 32.144 0.0
-15.6761 30.9447 0.0
-15.8302 29.9364 0.0
-15.8477 29.5417 0.0
-16.0186 29.0282 0.0
-15.9826 28.043 0.0
-15.5124 26.3994 0.0
-14.5165 24.0513 0.0
-13.1142 21.1553 0.0
-11.6481 17.9825 0.0
-10.5122 14.6934 0.0
-9.80399 11.135 0.0
-8.18778 20.8032 0.0
-9.02069 9.33108 0.0
1.10835 8.86749 0.0
-3.48671 11.3006 0.0
-8.40305 15.578 0.0
-10.7431 16.9559 0.0
-12.4617 17.4521 0.0
-13.5337 17.3334 0.0
10.046 13.3045 0.0
10.1396 15.4128 0.0
2.15136 16.9682 0.0
-4.32871 24.9019 0.0
-10.1182 32.7825 0.0
-12.8216 34.0323 0.0
-15.3158 33.5064 0.0
-16.4525 31.9632 0.0
-16.2852 31.1063 0.0
-16.3769 31.0375 0.0
-16.6253 30.9629 0.0
-16.6448 30.5589 0.0
-16.2245 29.6006 0.0
-15.2818 27.9031 0.0
-13.9285 25.4063 0.0
-12.501 22.2573 0.0
-11.4231 18.7712 0.0
-10.9262 15.3878 0.0
-11.5554 17.5581 0.0
-9.79038 15.8412 0.0
-0.281483 10.4239 0.0
-4.39539 11.9047 0.0
-8.52569 15.9912 0.0
-10.9137 17.5728 0.0
-12.7144 18.1281 0.0
-13.838 18.127 0.0
10.1396 15.4128 0.0
8.94883 18.6217 0.0
-0.0648537 21.2875 0.0
-8.02701 30.166 0.0
-12.6936 35.2141 0.0
-14.8798 35.7659 0.0
-16.6891 34.809 0.0
-17.0498 32.9671 0.0
-16.7086 32.2415 0.0
-16.9219 32.4144 0.0
-17.2802 32.6476 0.0