# vtk DataFile Version 2.0
Particulate Flow Equations Solution
ASCII
DATASET STRUCTURED_GRID
DIMENSIONS 26 26 1
POINTS 676 double
-10 -10 0
-9.23077 -10 0
-8.46154 -10 0
-7.69231 -10 0
-6.92308 -10 0
-6.15385 -10 0
-5.38462 -10 0
-4.61538 -10 0
-3.84615 -10 0
-3.07692 -10 0
-2.30769 -10 0
-1.53846 -10 0
-0.769231 -10 0
5.55112e-016 -10 0
0.769231 -10 0
1.53846 -10 0
2.30769 -10 0
3.07692 -10 0
3.84615 -10 0
4.61538 -10 0
5.38462 -10 0
6.15385 -10 0
6.92308 -10 0
7.69231 -10 0
8.46154 -10 0
10 -10 0
-10 -9.23077 0
-9.23077 -9.23077 0
-8.46154 -9.23077 0
-7.69231 -9.23077 0
-6.92308 -9.23077 0
-6.15385 -9.23077 0
-5.38462 -9.23077 0
-4.61538 -9.23077 0
-3.84615 -9.23077 0
-3.07692 -9.23077 0
-2.30769 -9.23077 0
-1.53846 -9.23077 0
-0.769231 -9.23077 0
5.55112e-016 -9.23077 0
0.769231 -9.23077 0
1.53846 -9.23077 0
2.30769 -9.23077 0
3.07692 -9.23077 0
3.84615 -9.23077 0
4.61538 -9.23077 0
5.38462 -9.23077 0
6.15385 -9.23077 0
6.92308 -9.23077 0
7.69231 -9.23077 0
8.46154 -9.23077 0
10 -9.23077 0
-10 -8.46154 0
-9.23077 -8.46154 0
-8.46154 -8.46154 0
-7.69231 -8.46154 0
-6.92308 -8.46154 0
-6.15385 -8.46154 0
-5.38462 -8.46154 0
-4.61538 -8.46154 0
-3.84615 -8.46154 0
-3.07692 -8.46154 0
-2.30769 -8.46154 0
-1.53846 -8.46154 0
-0.769231 -8.46154 0
5.55112e-016 -8.46154 0
0.769231 -8.46154 0
1.53846 -8.46154 0
2.30769 -8.46154 0
3.07692 -8.46154 0
3.84615 -8.46154 0
4.61538 -8.46154 0
5.38462 -8.46154 0
6.15385 -8.46154 0
6.92308 -8.46154 0
7.69231 -8.46154 0
8.46154 -8.46154 0
10 -8.46154 0
-10 -7.69231 0
-9.23077 -7.69231 0
-8.46154 -7.69231 0
-7.69231 -7.69231 0
-6.92308 -7.69231 0
-6.15385 -7.69231 0
-5.38462 -7.69231 0
-4.61538 -7.69231 0
-3.84615 -7.69231 0
-3.07692 -7.69231 0
-2.30769 -7.69231 0
-1.53846 -7.69231 0
-0.769231 -7.69231 0
5.55112e-016 -7.69231 0
0.769231 -7.69231 0
1.53846 -7.69231 0
2.30769 -7.69231 0
3.07692 -7.69231 0
3.84615 -7.69231 0
4.61538 -7.69231 0
5.38462 -7.69231 0
6.15385 -7.69231 0
6.92308 -7.69231 0
7.69231 -7.69231 0
8.46154 -7.69231 0
10 -7.69231 0
-10 -6.92308 0
-9.23077 -6.92308 0
-8.46154 -6.92308 0
-7.69231 -6.92308 0
-6.92308 -6.92308 0
-6.15385 -6.92308 0
-5.38462 -6.92308 0
-4.61538 -6.92308 0
-3.84615 -6.92308 0
-3.07692 -6.92308 0
-2.30769 -6.92308 0
-1.53846 -6.92308 0
-0.769231 -6.92308 0
5.55112e-016 -6.92308 0
0.769231 -6.92308 0
1.53846 -6.92308 0
2.30769 -6.92308 0
3.07692 -6.92308 0
3.84615 -6.92308 0
4.61538 -6.92308 0
5.38462 -6.92308 0
6.15385 -6.92308 0
6.92308 -6.92308 0
7.69231 -6.92308 0
8.46154 -6.92308 0
10 -6.92308 0
-10 -6.15385 0
-9.23077 -6.15385 0
-8.46154 -6.15385 0
-7.69231 -6.15385 0
-6.92308 -6.15385 0
-6.15385 -6.15385 0
-5.38462 -6.15385 0
-4.61538 -6.15385 0
-3.84615 -6.15385 0
-3.07692 -6.15385 0
-2.30769 -6.15385 0
-1.53846 -6.15385 0
-0.769231 -6.15385 0
5.55112e-016 -6.15385 0
0.769231 -6.15385 0
1.53846 -6.15385 0
2.30769 -6.15385 0
3.07692 -6.15385 0
3.84615 -6.15385 0
4.61538 -6.15385 0
5.38462 -6.15385 0
6.15385 -6.15385 0
6.92308 -6.15385 0
7.69231 -6.15385 0
8.46154 -6.15385 0
10 -6.15385 0
-10 -5.38462 0
-9.23077 -5.38462 0
-8.46154 -5.38462 0
-7.69231 -5.38462 0
-6.92308 -5.38462 0
-6.15385 -5.38462 0
-5.38462 -5.38462 0
-4.61538 -5.38462 0
-3.84615 -5.38462 0
-3.07692 -5.38462 0
-2.30769 -5.38462 0
-1.53846 -5.38462 0
-0.769231 -5.38462 0
5.55112e-016 -5.38462 0
0.769231 -5.38462 0
1.53846 -5.38462 0
2.30769 -5.38462 0
3.07692 -5.38462 0
3.84615 -5.38462 0
4.61538 -5.38462 0
5.38462 -5.38462 0
6.15385 -5.38462 0
6.92308 -5.38462 0
7.69231 -5.38462 0
8.46154 -5.38462 0
10 -5.38462 0
-10 -4.61538 0
-9.23077 -4.61538 0
-8.46154 -4.61538 0
-7.69231 -4.61538 0
-6.92308 -4.61538 0
-6.15385 -4.61538 0
-5.38462 -4.61538 0
-4.61538 -4.61538 0
-3.84615 -4.61538 0
-3.07692 -4.61538 0
-2.30769 -4.61538 0
-1.53846 -4.61538 0
-0.769231 -4.61538 0
5.55112e-016 -4.61538 0
0.769231 -4.61538 0
1.53846 -4.61538 0
2.30769 -4.61538 0
3.07692 -4.61538 0
3.84615 -4.61538 0
4.61538 -4.61538 0
5.38462 -4.61538 0
6.15385 -4.61538 0
6.92308 -4.61538 0
7.69231 -4.61538 0
8.46154 -4.61538 0
10 -4.61538 0
-10 -3.84615 0
-9.23077 -3.84615 0
-8.46154 -3.84615 0
-7.69231 -3.84615 0
-6.92308 -3.84615 0
-6.15385 -3.84615 0
-5.38462 -3.84615 0
-4.61538 -3.84615 0
-3.84615 -3.84615 0
-3.07692 -3.84615 0
-2.30769 -3.84615 0
-1.53846 -3.84615 0
-0.769231 -3.84615 0
5.55112e-016 -3.84615 0
0.769231 -3.84615 0
1.53846 -3.84615 0
2.30769 -3.84615 0
3.07692 -3.84615 0
3.84615 -3.84615 0
4.61538 -3.84615 0
5.38462 -3.84615 0
6.15385 -3.84615 0
6.92308 -3.84615 0
7.69231 -3.84615 0
8.46154 -3.84615 0
10 -3.84615 0
-10 -3.07692 0
-9.23077 -3.07692 0
-8.46154 -3.07692 0
-7.69231 -3.07692 0
-6.92308 -3.07692 0
-6.15385 -3.07692 0
-5.38462 -3.07692 0
-4.61538 -3.07692 0
-3.84615 -3.07692 0
-3.07692 -3.07692 0
-2.30769 -3.07692 0
-1.53846 -3.07692 0
-0.769231 -3.07692 0
5.55112e-016 -3.07692 0
0.769231 -3.07692 0
1.53846 -3.07692 0
2.30769 -3.07692 0
3.07692 -3.07692 0
3.84615 -3.07692 0
4.61538 -3.07692 0
5.38462 -3.07692 0
6.15385 -3.07692 0
6.92308 -3.07692 0
7.69231 -3.07692 0
8.46154 -3.07692 0
10 -3.07692 0
-10 -2.30769 0
-9.23077 -2.30769 0
-8.46154 -2.30769 0
-7.69231 -2.30769 0
-6.92308 -2.30769 0
-6.15385 -2.30769 0
-5.38462 -2.30769 0
-4.61538 -2.30769 0
-3.84615 -2.30769 0
-3.07692 -2.30769 0
-2.30769 -2.30769 0
-1.53846 -2.30769 0
-0.769231 -2.30769 0
5.55112e-016 -2.30769 0
0.769231 -2.30769 0
1.53846 -2.30769 0
2.30769 -2.30769 0
3.07692 -2.30769 0
3.84615 -2.30769 0
4.61538 -2.30769 0
5.38462 -2.30769 0
6.15385 -2.30769 0
6.92308 -2.30769 0
7.69231 -2.30769 0
8.46154 -2.30769 0
10 -2.30769 0
-10 -1.53846 0
-9.23077 -1.53846 0
-8.46154 -1.53846 0
-7.69231 -1.53846 0
-6.92308 -1.53846 0
-6.15385 -1.53846 0
-5.38462 -1.53846 0
-4.61538 -1.53846 0
-3.84615 -1.53846 0
-3.07692 -1.53846 0
-2.30769 -1.53846 0
-1.53846 -1.53846 0
-0.769231 -1.53846 0
5.55112e-016 -1.53846 0
0.769231 -1.53846 0
1.53846 -1.53846 0
2.30769 -1.53846 0
3.07692 -1.53846 0
3.84615 -1.53846 0
4.61538 -1.53846 0
5.38462 -1.53846 0
6.15385 -1.53846 0
6.92308 -1.53846 0
7.69231 -1.53846 0
8.46154 -1.53846 0
10 -1.53846 0
-10 -0.769231 0
-9.23077 -0.769231 0
-8.46154 -0.769231 0
-7.69231 -0.769231 0
-6.92308 -0.769231 0
-6.15385 -0.769231 0
-5.38462 -0.769231 0
-4.61538 -0.769231 0
-3.84615 -0.769231 0
-3.07692 -0.769231 0
-2.30769 -0.769231 0
-1.53846 -0.769231 0
-0.769231 -0.769231 0
5.55112e-016 -0.769231 0
0.769231 -0.769231 0
1.53846 -0.769231 0
2.30769 -0.769231 0
3.07692 -0.769231 0
3.84615 -0.769231 0
4.61538 -0.769231 0
5.38462 -0.769231 0
6.15385 -0.769231 0
6.92308 -0.769231 0
7.69231 -0.769231 0
8.46154 -0.769231 0
10 -0.769231 0
-10 5.55112e-016 0
-9.23077 5.55112e-016 0
-8.46154 5.55112e-016 0
-7.69231 5.55112e-016 0
-6.92308 5.55112e-016 0
-6.15385 5.55112e-016 0
-5.38462 5.55112e-016 0
-4.61538 5.55112e-016 0
-3.84615 5.55112e-016 0
-3.07692 5.55112e-016 0
-2.30769 5.55112e-016 0
-1.53846 5.55112e-016 0
-0.769231 5.55112e-016 0
5.55112e-016 5.55112e-016 0
0.769231 5.55112e-016 0
1.53846 5.55112e-016 0
2.30769 5.55112e-016 0
3.07692 5.55112e-016 0
3.84615 5.55112e-016 0
4.61538 5.55112e-016 0
5.38462 5.55112e-016 0
6.15385 5.55112e-016 0
6.92308 5.55112e-016 0
7.69231 5.55112e-016 0
8.46154 5.55112e-016 0
10 5.55112e-016 0
-10 0.769231 0
-9.23077 0.769231 0
-8.46154 0.769231 0
-7.69231 0.769231 0
-6.92308 0.769231 0
-6.15385 0.769231 0
-5.38462 0.769231 0
-4.61538 0.769231 0
-3.84615 0.769231 0
-3.07692 0.769231 0
-2.30769 0.769231 0
-1.53846 0.769231 0
-0.769231 0.769231 0
5.55112e-016 0.769231 0
0.769231 0.769231 0
1.53846 0.769231 0
2.30769 0.769231 0
3.07692 0.769231 0
3.84615 0.769231 0
4.61538 0.769231 0
5.38462 0.769231 0
6.15385 0.769231 0
6.92308 0.769231 0
7.69231 0.769231 0
8.46154 0.769231 0
10 0.769231 0
-10 1.53846 0
-9.23077 1.53846 0
-8.46154 1.53846 0
-7.69231 1.53846 0
-6.92308 1.53846 0
-6.15385 1.53846 0
-5.38462 1.53846 0
-4.61538 1.53846 0
-3.84615 1.53846 0
-3.07692 1.53846 0
-2.30769 1.53846 0
-1.53846 1.53846 0
-0.769231 1.53846 0
5.55112e-016 1.53846 0
0.769231 1.53846 0
1.53846 1.53846 0
2.30769 1.53846 0
3.07692 1.53846 0
3.84615 1.53846 0
4.61538 1.53846 0
5.38462 1.53846 0
6.15385 1.53846 0
6.92308 1.53846 0
7.69231 1.53846 0
8.46154 1.53846 0
10 1.53846 0
-10 2.30769 0
-9.23077 2.30769 0
-8.46154 2.30769 0
-7.69231 2.30769 0
-6.92308 2.30769 0
-6.15385 2.30769 0
-5.38462 2.30769 0
-4.61538 2.30769 0
-3.84615 2.30769 0
-3.07692 2.30769 0
-2.30769 2.30769 0
-1.53846 2.30769 0
-0.769231 2.30769 0
5.55112e-016 2.30769 0
0.769231 2.30769 0
1.53846 2.30769 0
2.30769 2.30769 0
3.07692 2.30769 0
3.84615 2.30769 0
4.61538 2.30769 0
5.38462 2.30769 0
6.15385 2.30769 0
6.92308 2.30769 0
7.69231 2.30769 0
8.46154 2.30769 0
10 2.30769 0
-10 3.07692 0
-9.23077 3.07692 0
-8.46154 3.07692 0
-7.69231 3.07692 0
-6.92308 3.07692 0
-6.15385 3.07692 0
-5.38462 3.07692 0
-4.61538 3.07692 0
-3.84615 3.07692 0
-3.07692 3.07692 0
-2.30769 3.07692 0
-1.53846 3.07692 0
-0.769231 3.07692 0
5.55112e-016 3.07692 0
0.769231 3.07692 0
1.53846 3.07692 0
2.30769 3.07692 0
3.07692 3.07692 0
3.84615 3.07692 0
4.61538 3.07692 0
5.38462 3.07692 0
6.15385 3.07692 0
6.92308 3.07692 0
7.69231 3.07692 0
8.46154 3.07692 0
10 3.07692 0
-10 3.84615 0
-9.23077 3.84615 0
-8.46154 3.84615 0
-7.69231 3.84615 0
-6.92308 3.84615 0
-6.15385 3.84615 0
-5.38462 3.84615 0
-4.61538 3.84615 0
-3.84615 3.84615 0
-3.07692 3.84615 0
-2.30769 3.84615 0
-1.53846 3.84615 0
-0.769231 3.84615 0
5.55112e-016 3.84615 0
0.769231 3.84615 0
1.53846 3.84615 0
2.30769 3.84615 0
3.07692 3.84615 0
3.84615 3.84615 0
4.61538 3.84615 0
5.38462 3.84615 0
6.15385 3.84615 0
6.92308 3.84615 0
7.69231 3.84615 0
8.46154 3.84615 0
10 3.84615 0
-10 4.61538 0
-9.23077 4.61538 0
-8.46154 4.61538 0
-7.69231 4.61538 0
-6.92308 4.61538 0
-6.15385 4.61538 0
-5.38462 4.61538 0
-4.61538 4.61538 0
-3.84615 4.61538 0
-3.07692 4.61538 0
-2.30769 4.61538 0
-1.53846 4.61538 0
-0.769231 4.61538 0
5.55112e-016 4.61538 0
0.769231 4.61538 0
1.53846 4.61538 0
2.30769 4.61538 0
3.07692 4.61538 0
3.84615 4.61538 0
4.61538 4.61538 0
5.38462 4.61538 0
6.15385 4.61538 0
6.92308 4.61538 0
7.69231 4.61538 0
8.46154 4.61538 0
10 4.61538 0
-10 5.38462 0
-9.23077 5.38462 0
-8.46154 5.38462 0
-7.69231 5.38462 0
-6.92308 5.38462 0
-6.15385 5.38462 0
-5.38462 5.38462 0
-4.61538 5.38462 0
-3.84615 5.38462 0
-3.07692 5.38462 0
-2.30769 5.38462 0
-1.53846 5.38462 0
-0.769231 5.38462 0
5.55112e-016 5.38462 0
0.769231 5.38462 0
1.53846 5.38462 0
2.30769 5.38462 0
3.07692 5.38462 0
3.84615 5.38462 0
4.61538 5.38462 0
5.38462 5.38462 0
6.15385 5.38462 0
6.92308 5.38462 0
7.69231 5.38462 0
8.46154 5.38462 0
10 5.38462 0
-10 6.15385 0
-9.23077 6.15385 0
-8.46154 6.15385 0
-7.69231 6.15385 0
-6.92308 6.15385 0
-6.15385 6.15385 0
-5.38462 6.15385 0
-4.61538 6.15385 0
-3.84615 6.15385 0
-3.07692 6.15385 0
-2.30769 6.15385 0
-1.53846 6.15385 0
-0.769231 6.15385 0
5.55112e-016 6.15385 0
0.769231 6.15385 0
1.53846 6.15385 0
2.30769 6.15385 0
3.07692 6.15385 0
3.84615 6.15385 0
4.61538 6.15385 0
5.38462 6.15385 0
6.15385 6.15385 0
6.92308 6.15385 0
7.69231 6.15385 0
8.46154 6.15385 0
10 6.15385 0
-10 6.92308 0
-9.23077 6.92308 0
-8.46154 6.92308 0
-7.69231 6.92308 0
-6.92308 6.92308 0
-6.15385 6.92308 0
-5.38462 6.92308 0
-4.61538 6.92308 0
-3.84615 6.92308 0
-3.07692 6.92308 0
-2.30769 6.92308 0
-1.53846 6.92308 0
-0.769231 6.92308 0
5.55112e-016 6.92308 0
0.769231 6.92308 0
1.53846 6.92308 0
2.30769 6.92308 0
3.07692 6.92308 0
3.84615 6.92308 0
4.61538 6.92308 0
5.38462 6.92308 0
6.15385 6.92308 0
6.92308 6.92308 0
7.69231 6.92308 0
8.46154 6.92308 0
10 6.92308 0
-10 7.69231 0
-9.23077 7.69231 0
-8.46154 7.69231 0
-7.69231 7.69231 0
-6.92308 7.69231 0
-6.15385 7.69231 0
-5.38462 7.69231 0
-4.61538 7.69231 0
-3.84615 7.69231 0
-3.07692 7.69231 0
-2.30769 7.69231 0
-1.53846 7.69231 0
-0.769231 7.69231 0
5.55112e-016 7.69231 0
0.769231 7.69231 0
1.53846 7.69231 0
2.30769 7.69231 0
3.07692 7.69231 0
3.84615 7.69231 0
4.61538 7.69231 0
5.38462 7.69231 0
6.15385 7.69231 0
6.92308 7.69231 0
7.69231 7.69231 0
8.46154 7.69231 0
10 7.69231 0
-10 8.46154 0
-9.23077 8.46154 0
-8.46154 8.46154 0
-7.69231 8.46154 0
-6.92308 8.46154 0
-6.15385 8.46154 0
-5.38462 8.46154 0
-4.61538 8.46154 0
-3.84615 8.46154 0
-3.07692 8.46154 0
-2.30769 8.46154 0
-1.53846 8.46154 0
-0.769231 8.46154 0
5.55112e-016 8.46154 0
0.769231 8.46154 0
1.53846 8.46154 0
2.30769 8.46154 0
3.07692 8.46154 0
3.84615 8.46154 0
4.61538 8.46154 0
5.38462 8.46154 0
6.15385 8.46154 0
6.92308 8.46154 0
7.69231 8.46154 0
8.46154 8.46154 0
10 8.46154 0
-10 10 0
-9.23077 10 0
-8.46154 10 0
-7.69231 10 0
-6.92308 10 0
-6.15385 10 0
-5.38462 10 0
-4.61538 10 0
-3.84615 10 0
-3.07692 10 0
-2.30769 10 0
-1.53846 10 0
-0.769231 10 0
5.55112e-016 10 0
0.769231 10 0
1.53846 10 0
2.30769 10 0
3.07692 10 0
3.84615 10 0
4.61538 10 0
5.38462 10 0
6.15385 10 0
6.92308 10 0
7.69231 10 0
8.46154 10 0
10 10 0

POINT_DATA 676
SCALARS h double 1
LOOkUP_TABLE default
0.0722972
0.0832143
0.0918084
0.0970862
0.0987382
0.0969879
0.0924118
0.0857461
0.0777412
0.0690814
0.0603477
0.0520032
0.0443871
0.037718
0.0321132
0.0276238
0.0242847
0.0221686
0.0214346
0.0223533
0.0252854
0.0305858
0.0384242
0.0485713
0.0602679
0.0722972
0.0850677
0.101934
0.116353
0.126447
0.131175
0.130445
0.124922
0.115731
0.104155
0.0914201
0.0785642
0.0663748
0.0553782
0.0458642
0.0379385
0.0315932
0.026785
0.0235114
0.0218809
0.022166
0.0248225
0.0304305
0.0395019
0.0521752
0.067837
0.0850677
0.0948237
0.118827
0.141097
0.158555
0.168914
0.17124
0.165957
0.154503
0.13884
0.121001
0.10276
0.0854575
0.0699567
0.0566847
0.0457408
0.0370243
0.0303615
0.0256158
0.0227802
0.022058
0.0239249
0.0291345
0.0385809
0.0529348
0.0721065
0.0948237
0.098925
0.130227
0.161811
0.189242
0.208492
0.217058
0.214462
0.202088
0.182554
0.158933
0.134092
0.110268
0.0889108
0.0707277
0.0558605
0.0441029
0.0351045
0.0285332
0.024198
0.0221495
0.0227748
0.0268733
0.0356218
0.0502855
0.0715739
0.098925
0.0956083
0.132689
0.173473
0.21252
0.243854
0.262669
0.26662
0.256234
0.234391
0.205247
0.173094
0.141499
0.112882
0.0884889
0.0686313
0.0530268
0.0411211
0.032333
0.0262222
0.0226071
0.0216756
0.0241062
0.0311519
0.0445172
0.0658062
0.0956083
0.0849286
0.124495
0.172023
0.22207
0.267194
0.299977
0.315225
0.311394
0.290676
0.2579
0.21889
0.178963
0.141997
0.110175
0.0842275
0.0639048
0.0484646
0.0370447
0.0289035
0.0235651
0.0209312
0.0214131
0.0260929
0.0367952
0.055787
0.0849286
0.0690282
0.106773
0.156386
0.213786
0.271381
0.31976
0.350461
0.358628
0.344302
0.311906
0.268376
0.220938
0.175402
0.135402
0.10248
0.0766475
0.0570697
0.0426159
0.0322187
0.0250705
0.0207381
0.0192778
0.0214085
0.028716
0.0436576
0.0690282
0.0513628
0.0833543
0.129481
0.188097
0.253198
0.315037
0.362632
0.387274
0.385365
0.359241
0.315765
0.263648
0.210829
0.162888
0.122682
0.0908581
0.0666969
0.0488883
0.0360608
0.0270705
0.0211395
0.0179466
0.0177641
0.021688
0.0318625
0.0513628
0.0353033
0.0592538
0.0972905
0.150413
0.215514
0.284613
0.346176
0.388487
0.403646
0.390198
0.353093
0.301285
0.244431
0.190267
0.143454
0.105751
0.0768949
0.0555902
0.040251
0.0294366
0.0220492
0.0174191
0.0153891
0.0164908
0.022232
0.0353033
0.0229622
0.0386736
0.0663958
0.109046
0.166634
0.234463
0.302859
0.359295
0.39245
0.396295
0.37202
0.326917
0.271128
0.21417
0.162728
0.120124
0.0869865
0.0623378
0.0445567
0.0320009
0.0233132
0.0175352
0.0141571
0.0132149
0.015515
0.0229622
0.0148446
0.0237345
0.0415059
0.0718028
0.116899
0.175614
0.241801
0.304732
0.351967
0.373743
0.366612
0.334314
0.285625
0.230704
0.177934
0.132419
0.0960822
0.0686408
0.048702
0.034583
0.0247663
0.0180845
0.0137722
0.0115015
0.0115043
0.0148446
0.0102795
0.0144423
0.0243716
0.0433743
0.0746693
0.119647
0.175929
0.236341
0.289991
0.325645
0.335955
0.320183
0.28393
0.236309
0.186418
0.140889
0.103136
0.0739133
0.0523677
0.0369953
0.0262585
0.0188796
0.0139324
0.0108577
0.00950395
0.0102795
0.00815542
0.00952313
0.0142582
0.0247432
0.0440024
0.0745976
0.116937
0.167657
0.21918
0.261392
0.285133
0.285789
0.264878
0.228845
0.186068
0.1439
0.10706
0.0775042
0.05519
0.0390351
0.0276549
0.019778
0.0144104
0.0108687
0.0087834
0.00815542
0.00749336
0.00741828
0.00921509
0.0142749
0.0248036
0.0433546
0.0717039
0.109344
0.152306
0.193305
0.223764
0.237019
0.230955
0.208523
0.176013
0.140348
0.106929
0.0787751
0.0567786
0.0404793
0.0288233
0.020674
0.0150625
0.0112662
0.00881361
0.00749336
0.0076693
0.00692597
0.00726935
0.00936598
0.0145166
0.0246207
0.0416421
0.0665637
0.0981671
0.132341
0.16269
0.182604
0.18785
0.178199
0.157145
0.130097
0.102256
0.0772418
0.0567756
0.0411012
0.0296309
0.021484
0.0158075
0.0119111
0.00929881
0.0076693
0.00838177
0.00736292
0.00705888
0.00772917
0.0100157
0.0150548
0.024351
0.0392451
0.0600254
0.0850516
0.110508
0.131276
0.142764
0.14275
0.132134
0.114243
0.093261
0.0727613
0.0549599
0.0407187
0.0299604
0.0221432
0.0166062
0.0127527
0.0101179
0.00838177
0.00954571
0.00844882
0.00788898
0.00793349
0.00885505
0.0112324
0.0159806
0.0241772
0.036585
0.0529732
0.0715878
0.0892347
0.1022
0.107663
0.104811
0.0950065
0.080984
0.0656861
0.0513674
0.0392676
0.0297469
0.0226175
0.0174551
0.0138015
0.0112632
0.00954571
0.0112137
0.0101556
0.00952967
0.00932527
0.00963791
0.0107307
0.013081
0.0173575
0.0242331
0.0340032
0.0461325
0.0590184
0.0702558
0.0774312
0.0790691
0.0751824
0.0671198
0.0568833
0.0463635
0.0368669
0.0290202
0.0229265
0.0183935
0.0151197
0.0128072
0.0112137
0.0135403
0.0126183
0.0120333
0.0117538
0.0118008
0.0122819
0.0134214
0.0155734
0.0191688
0.0245477
0.0316913
0.0399721
0.0481156
0.0545105
0.0577853
0.0573487
0.053575
0.0475546
0.0406054
0.0338352
0.0279297
0.0231606
0.019512
0.0168227
0.0148922
0.0135403
0.016775
0.0161032
0.0156452
0.0153776
0.0152997
0.0154529
0.0159342
0.016911
0.0186155
0.0212843
0.0250325
0.0296922
0.0347103
0.0392104
0.0422539
0.0431957
0.0419333
0.0389085
0.0348811
0.030628
0.0267256
0.0234766
0.0209519
0.0190793
0.0177293
0.016775
0.0212602
0.0210062
0.0207823
0.0205867
0.0204276
0.0203319
0.0203455
0.020544
0.0210414
0.0219773
0.023467
0.0255192
0.0279548
0.0303883
0.0323139
0.033283
0.033086
0.0318326
0.029888
0.0277108
0.0256914
0.0240604
0.0228805
0.0220947
0.021591
0.0212602
0.0274139
0.0278512
0.0280389
0.0279961
0.0277593
0.0273774
0.0268992
0.0263765
0.0258764
0.025489
0.025315
0.0254292
0.0258302
0.0264082
0.0269611
0.0272665
0.0271835
0.0267243
0.0260551
0.0254221
0.0250491
0.0250565
0.0254338
0.0260633
0.0267756
0.0274139
0.0356653
0.0372566
0.0381848
0.0384639
0.0381656
0.0373943
0.0362525
0.0348306
0.0332153
0.0315039
0.0298106
0.0282523
0.0269201
0.0258508
0.0250205
0.024372
0.0238672
0.0235357
0.0234899
0.02389
0.0248746
0.026487
0.0286318
0.0310801
0.0335244
0.0356653
0.0463332
0.0498485
0.052133
0.0531153
0.0528788
0.0516099
0.0495253
0.0468305
0.0437115
0.0403447
0.0369078
0.0335767
0.0305085
0.0278214
0.025585
0.0238349
0.0226061
0.0219712
0.0220602
0.0230428
0.0250712
0.0281971
0.0322943
0.0370268
0.041891
0.0463332
0.0588949
0.0654033
0.0700915
0.0725538
0.0727963
0.071079
0.0677905
0.0633486
0.0581475
0.0525427
0.0468525
0.0413558
0.0362827
0.0318038
0.0280294
0.0250275
0.0228585
0.0216169
0.0214612
0.022615
0.0253203
0.0297394
0.0358249
0.0432106
0.0512035
0.0588949
0.0722972
0.0832143
0.0918084
0.0970862
0.0987382
0.0969879
0.0924118
0.0857461
0.0777412
0.0690814
0.0603477
0.0520032
0.0443871
0.037718
0.0321132
0.0276238
0.0242847
0.0221686
0.0214346
0.0223533
0.0252854
0.0305858
0.0384242
0.0485713
0.0602679
0.0722972

VECTORS u double
-150.494 149.912 0.0
-150.938 151.495 0.0
-151.413 152.704 0.0
-151.937 153.588 0.0
-152.53 154.134 0.0
-153.216 154.34 0.0
-154.012 154.206 0.0
-154.917 153.741 0.0
-155.909 152.956 0.0
-156.937 151.867 0.0
-157.934 150.494 0.0
-158.821 148.864 0.0
-159.518 147.008 0.0
-159.953 144.973 0.0
-160.061 142.828 0.0
-159.782 140.678 0.0
-159.061 138.688 0.0
-157.859 137.112 0.0
-156.218 136.294 0.0
-154.337 136.55 0.0
-152.573 137.943 0.0
-151.256 140.174 0.0
-150.512 142.771 0.0
-150.256 145.344 0.0
-150.327 147.741 0.0
-150.494 149.912 0.0
-151.405 150.441 0.0
-151.882 152.309 0.0
-152.46 153.549 0.0
-153.12 154.472 0.0
-153.852 155.062 0.0
-154.667 155.313 0.0
-155.575 155.223 0.0
-156.572 154.8 0.0
-157.632 154.054 0.0
-158.709 153.002 0.0
-159.735 151.663 0.0
-160.636 150.064 0.0
-161.334 148.231 0.0
-161.761 146.205 0.0
-161.853 144.035 0.0
-161.549 141.801 0.0
-160.782 139.633 0.0
-159.487 137.758 0.0
-157.662 136.533 0.0
-155.486 136.386 0.0
-153.38 137.541 0.0
-151.813 139.769 0.0
-150.997 142.529 0.0
-150.89 145.346 0.0
-151.215 147.983 0.0
-151.405 150.441 0.0
-152.374 150.235 0.0
-152.854 152.361 0.0
-153.466 153.809 0.0
-154.206 154.867 0.0
-155.039 155.561 0.0
-155.96 155.898 0.0
-156.968 155.882 0.0
-158.054 155.52 0.0
-159.189 154.827 0.0
-160.326 153.819 0.0
-161.396 152.518 0.0
-162.328 150.948 0.0
-163.047 149.137 0.0
-163.488 147.119 0.0
-163.594 144.937 0.0
-163.31 142.651 0.0
-162.57 140.357 0.0
-161.291 138.236 0.0
-159.414 136.612 0.0
-157.036 135.97 0.0
-154.571 136.732 0.0
-152.635 138.839 0.0
-151.615 141.724 0.0
-151.485 144.762 0.0
-151.976 147.618 0.0
-152.374 150.235 0.0
-152.947 149.369 0.0
-153.569 151.697 0.0
-154.288 153.419 0.0
-155.122 154.69 0.0
-156.049 155.553 0.0
-157.065 156.026 0.0
-158.164 156.122 0.0
-159.334 155.852 0.0
-160.546 155.232 0.0
-161.747 154.283 0.0
-162.874 153.029 0.0
-163.85 151.496 0.0
-164.605 149.713 0.0
-165.076 147.711 0.0
-165.215 145.53 0.0
-164.976 143.217 0.0
-164.306 140.846 0.0
-163.121 138.548 0.0
-161.322 136.581 0.0
-158.892 135.409 0.0
-156.13 135.61 0.0
-153.724 137.406 0.0
-152.301 140.309 0.0
-151.973 143.539 0.0
-152.416 146.595 0.0
-152.947 149.369 0.0
-153.182 147.91 0.0
-153.957 150.439 0.0
-154.829 152.42 0.0
-155.79 153.93 0.0
-156.828 155.002 0.0
-157.942 155.656 0.0
-159.132 155.904 0.0
-160.384 155.759 0.0
-161.67 155.241 0.0
-162.941 154.373 0.0
-164.129 153.183 0.0
-165.161 151.7 0.0
-165.965 149.956 0.0
-166.482 147.982 0.0
-166.667 145.816 0.0
-166.488 143.501 0.0
-165.905 141.094 0.0
-164.853 138.688 0.0
-163.224 136.466 0.0
-160.909 134.806 0.0
-158.011 134.328 0.0
-155.123 135.565 0.0
-153.107 138.307 0.0
-152.36 141.677 0.0
-152.622 144.949 0.0
-153.182 147.91 0.0
-153.152 145.914 0.0
-154.033 148.657 0.0
-155.056 150.872 0.0
-156.163 152.615 0.0
-157.331 153.912 0.0
-158.558 154.773 0.0
-159.844 155.206 0.0
-161.182 155.221 0.0
-162.544 154.837 0.0
-163.884 154.078 0.0
-165.139 152.975 0.0
-166.234 151.562 0.0
-167.1 149.873 0.0
-167.675 147.943 0.0
-167.92 145.811 0.0
-167.808 143.515 0.0
-167.317 141.106 0.0
-166.403 138.649 0.0
-164.979 136.269 0.0
-162.901 134.228 0.0
-160.087 133.063 0.0
-156.863 133.505 0.0
-154.149 135.808 0.0
-152.756 139.212 0.0
-152.658 142.722 0.0
-153.152 145.914 0.0
-152.913 143.43 0.0
-153.823 146.415 0.0
-154.967 148.852 0.0
-156.22 150.811 0.0
-157.529 152.322 0.0
-158.883 153.398 0.0
-160.278 154.036 0.0
-161.709 154.24 0.0
-163.153 154.022 0.0
-164.567 153.404 0.0
-165.892 152.418 0.0
-167.057 151.1 0.0
-167.993 149.489 0.0
-168.64 147.624 0.0
-168.956 145.545 0.0
-168.919 143.29 0.0
-168.516 140.905 0.0
-167.726 138.443 0.0
-166.492 135.986 0.0
-164.686 133.7 0.0
-162.139 131.966 0.0
-158.869 131.502 0.0
-155.543 133.013 0.0
-153.309 136.218 0.0
-152.629 139.95 0.0
-152.913 143.43 0.0
-152.534 140.489 0.0
-153.362 143.772 0.0
-154.576 146.443 0.0
-155.957 148.602 0.0
-157.408 150.31 0.0
-158.898 151.59 0.0
-160.415 152.437 0.0
-161.951 152.846 0.0
-163.485 152.821 0.0
-164.98 152.376 0.0
-166.382 151.539 0.0
-167.624 150.348 0.0
-168.639 148.844 0.0
-169.366 147.069 0.0
-169.764 145.066 0.0
-169.809 142.875 0.0
-169.492 140.538 0.0
-168.805 138.103 0.0
-167.719 135.629 0.0
-166.148 133.219 0.0
-163.929 131.107 0.0
-160.897 129.832 0.0
-157.289 130.272 0.0
-154.184 132.859 0.0
-152.663 136.673 0.0
-152.534 140.489 0.0
-152.104 137.112 0.0
-152.694 140.771 0.0
-153.906 143.721 0.0
-155.383 146.084 0.0
-156.967 147.972 0.0
-158.594 149.435 0.0
-160.242 150.48 0.0
-161.895 151.097 0.0
-163.532 151.28 0.0
-165.119 151.034 0.0
-166.606 150.379 0.0
-167.933 149.348 0.0
-169.034 147.983 0.0
-169.85 146.329 0.0
-170.339 144.428 0.0
-170.471 142.325 0.0
-170.238 140.061 0.0
-169.636 137.679 0.0
-168.654 135.231 0.0
-167.247 132.786 0.0
-165.302 130.484 0.0
-162.631 128.653 0.0
-159.149 128.018 0.0
-155.454 129.503 0.0
-152.921 132.998 0.0
-152.104 137.112 0.0
-151.735 133.359 0.0
-151.86 137.429 0.0
-152.972 140.741 0.0
-154.509 143.345 0.0
-156.21 145.409 0.0
-157.972 147.036 0.0
-159.754 148.257 0.0
-161.533 149.07 0.0
-163.285 149.463 0.0
-164.976 149.431 0.0
-166.56 148.983 0.0
-167.979 148.144 0.0
-169.175 146.953 0.0
-170.088 145.45 0.0
-170.672 143.683 0.0
-170.897 141.694 0.0
-170.747 139.527 0.0
-170.219 137.225 0.0
-169.308 134.836 0.0
-167.996 132.419 0.0
-166.223 130.065 0.0
-163.859 127.96 0.0
-160.729 126.553 0.0
-156.94 126.734 0.0
-153.521 129.258 0.0
-151.735 133.359 0.0
-151.539 129.521 0.0
-150.905 133.793 0.0
-151.768 137.532 0.0
-153.323 140.446 0.0
-155.132 142.709 0.0
-157.028 144.489 0.0
-158.948 145.864 0.0
-160.86 146.851 0.0
-162.737 147.442 0.0
-164.544 147.625 0.0
-166.236 147.399 0.0
-167.759 146.777 0.0
-169.056 145.788 0.0
-170.071 144.47 0.0
-170.756 142.867 0.0
-171.076 141.022 0.0
-171.009 138.979 0.0
-170.547 136.782 0.0
-169.685 134.483 0.0
-168.421 132.14 0.0
-166.729 129.827 0.0
-164.543 127.662 0.0
-161.733 125.885 0.0
-158.204 125.062 0.0
-154.378 126.154 0.0
-151.539 129.521 0.0
-151.526 126.371 0.0
-149.887 130.144 0.0
-150.258 134.157 0.0
-151.768 137.435 0.0
-153.696 139.943 0.0
-155.744 141.883 0.0
-157.814 143.394 0.0
-159.87 144.53 0.0
-161.882 145.296 0.0
-163.815 145.681 0.0
-165.625 145.676 0.0
-167.261 145.282 0.0
-168.667 144.517 0.0
-169.789 143.41 0.0
-170.577 142 0.0
-170.994 140.327 0.0
-171.01 138.437 0.0
-170.609 136.375 0.0
-169.787 134.196 0.0
-168.542 131.965 0.0
-166.87 129.757 0.0
-164.748 127.665 0.0
-162.113 125.832 0.0
-158.874 124.545 0.0
-155.104 124.435 0.0
-151.526 126.371 0.0
-151.474 124.882 0.0
-148.89 127.325 0.0
-148.427 130.95 0.0
-149.735 134.43 0.0
-151.797 137.187 0.0
-154.05 139.297 0.0
-156.314 140.931 0.0
-158.54 142.188 0.0
-160.705 143.1 0.0
-162.778 143.662 0.0
-164.717 143.862 0.0
-166.474 143.692 0.0
-167.996 143.159 0.0
-169.228 142.28 0.0
-170.122 141.085 0.0
-170.634 139.611 0.0
-170.732 137.9 0.0
-170.393 136.002 0.0
-169.605 133.977 0.0
-168.367 131.895 0.0
-166.683 129.84 0.0
-164.553 127.907 0.0
-161.964 126.205 0.0
-158.879 124.886 0.0
-155.301 124.246 0.0
-151.474 124.882 0.0
-151.096 125.259 0.0
-147.969 126.445 0.0
-146.449 128.853 0.0
-147.164 131.881 0.0
-149.27 134.65 0.0
-151.803 136.857 0.0
-154.35 138.576 0.0
-156.811 139.916 0.0
-159.169 140.932 0.0
-161.406 141.633 0.0
-163.492 142.008 0.0
-165.382 142.044 0.0
-167.026 141.734 0.0
-168.373 141.086 0.0
-169.373 140.118 0.0
-169.981 138.861 0.0
-170.161 137.354 0.0
-169.882 135.648 0.0
-169.128 133.807 0.0
-167.894 131.912 0.0
-166.184 130.056 0.0
-164.013 128.344 0.0
-161.397 126.882 0.0
-158.347 125.775 0.0
-154.893 125.154 0.0
-151.096 125.259 0.0
-150.343 126.894 0.0
-147.092 127.629 0.0
-144.765 128.945 0.0
-144.407 130.828 0.0
-146.098 132.948 0.0
-148.832 134.9 0.0
-151.759 136.529 0.0
-154.567 137.85 0.0
-157.2 138.897 0.0
-159.654 139.677 0.0
-161.918 140.178 0.0
-163.96 140.381 0.0
-165.739 140.269 0.0
-167.206 139.838 0.0
-168.315 139.096 0.0
-169.02 138.064 0.0
-169.281 136.777 0.0
-169.063 135.286 0.0
-168.344 133.661 0.0
-167.114 131.989 0.0
-165.377 130.379 0.0
-163.156 128.945 0.0
-160.487 127.798 0.0
-157.421 127.03 0.0
-154.03 126.707 0.0
-150.343 126.894 0.0
-149.363 129.182 0.0
-146.248 130.031 0.0
-143.664 131.028 0.0
-142.342 132.065 0.0
-142.947 133.114 0.0
-145.296 134.194 0.0
-148.451 135.275 0.0
-151.672 136.292 0.0
-154.686 137.191 0.0
-157.444 137.931 0.0
-159.943 138.471 0.0
-162.174 138.775 0.0
-164.109 138.813 0.0
-165.71 138.567 0.0
-166.934 138.031 0.0
-167.738 137.218 0.0
-168.081 136.157 0.0
-167.926 134.899 0.0
-167.243 133.515 0.0
-166.019 132.105 0.0
-164.26 130.788 0.0
-161.995 129.689 0.0
-159.284 128.924 0.0
-156.212 128.572 0.0
-152.892 128.661 0.0
-149.363 129.182 0.0
-148.337 131.811 0.0
-145.51 132.926 0.0
-143.082 134.018 0.0
-141.424 134.885 0.0
-141.019 135.376 0.0
-142.252 135.54 0.0