# vtk DataFile Version 2.0
Particulate Flow Equations Solution
ASCII
DATASET STRUCTURED_GRID
DIMENSIONS 26 26 1
POINTS 676 double
-10 -10 0
-9.23077 -10 0
-8.46154 -10 0
-7.69231 -10 0
-6.92308 -10 0
-6.15385 -10 0
-5.38462 -10 0
-4.61538 -10 0
-3.84615 -10 0
-3.07692 -10 0
-2.30769 -10 0
-1.53846 -10 0
-0.769231 -10 0
5.55112e-016 -10 0
0.769231 -10 0
1.53846 -10 0
2.30769 -10 0
3.07692 -10 0
3.84615 -10 0
4.61538 -10 0
5.38462 -10 0
6.15385 -10 0
6.92308 -10 0
7.69231 -10 0
8.46154 -10 0
10 -10 0
-10 -9.23077 0
-9.23077 -9.23077 0
-8.46154 -9.23077 0
-7.69231 -9.23077 0
-6.92308 -9.23077 0
-6.15385 -9.23077 0
-5.38462 -9.23077 0
-4.61538 -9.23077 0
-3.84615 -9.23077 0
-3.07692 -9.23077 0
-2.30769 -9.23077 0
-1.53846 -9.23077 0
-0.769231 -9.23077 0
5.55112e-016 -9.23077 0
0.769231 -9.23077 0
1.53846 -9.23077 0
2.30769 -9.23077 0
3.07692 -9.23077 0
3.84615 -9.23077 0
4.61538 -9.23077 0
5.38462 -9.23077 0
6.15385 -9.23077 0
6.92308 -9.23077 0
7.69231 -9.23077 0
8.46154 -9.23077 0
10 -9.23077 0
-10 -8.46154 0
-9.23077 -8.46154 0
-8.46154 -8.46154 0
-7.69231 -8.46154 0
-6.92308 -8.46154 0
-6.15385 -8.46154 0
-5.38462 -8.46154 0
-4.61538 -8.46154 0
-3.84615 -8.46154 0
-3.07692 -8.46154 0
-2.30769 -8.46154 0
-1.53846 -8.46154 0
-0.769231 -8.46154 0
5.55112e-016 -8.46154 0
0.769231 -8.46154 0
1.53846 -8.46154 0
2.30769 -8.46154 0
3.07692 -8.46154 0
3.84615 -8.46154 0
4.61538 -8.46154 0
5.38462 -8.46154 0
6.15385 -8.46154 0
6.92308 -8.46154 0
7.69231 -8.46154 0
8.46154 -8.46154 0
10 -8.46154 0
-10 -7.69231 0
-9.23077 -7.69231 0
-8.46154 -7.69231 0
-7.69231 -7.69231 0
-6.92308 -7.69231 0
-6.15385 -7.69231 0
-5.38462 -7.69231 0
-4.61538 -7.69231 0
-3.84615 -7.69231 0
-3.07692 -7.69231 0
-2.30769 -7.69231 0
-1.53846 -7.69231 0
-0.769231 -7.69231 0
5.55112e-016 -7.69231 0
0.769231 -7.69231 0
1.53846 -7.69231 0
2.30769 -7.69231 0
3.07692 -7.69231 0
3.84615 -7.69231 0
4.61538 -7.69231 0
5.38462 -7.69231 0
6.15385 -7.69231 0
6.92308 -7.69231 0
7.69231 -7.69231 0
8.46154 -7.69231 0
10 -7.69231 0
-10 -6.92308 0
-9.23077 -6.92308 0
-8.46154 -6.92308 0
-7.69231 -6.92308 0
-6.92308 -6.92308 0
-6.15385 -6.92308 0
-5.38462 -6.92308 0
-4.61538 -6.92308 0
-3.84615 -6.92308 0
-3.07692 -6.92308 0
-2.30769 -6.92308 0
-1.53846 -6.92308 0
-0.769231 -6.92308 0
5.55112e-016 -6.92308 0
0.769231 -6.92308 0
1.53846 -6.92308 0
2.30769 -6.92308 0
3.07692 -6.92308 0
3.84615 -6.92308 0
4.61538 -6.92308 0
5.38462 -6.92308 0
6.15385 -6.92308 0
6.92308 -6.92308 0
7.69231 -6.92308 0
8.46154 -6.92308 0
10 -6.92308 0
-10 -6.15385 0
-9.23077 -6.15385 0
-8.46154 -6.15385 0
-7.69231 -6.15385 0
-6.92308 -6.15385 0
-6.15385 -6.15385 0
-5.38462 -6.15385 0
-4.61538 -6.15385 0
-3.84615 -6.15385 0
-3.07692 -6.15385 0
-2.30769 -6.15385 0
-1.53846 -6.15385 0
-0.769231 -6.15385 0
5.55112e-016 -6.15385 0
0.769231 -6.15385 0
1.53846 -6.15385 0
2.30769 -6.15385 0
3.07692 -6.15385 0
3.84615 -6.15385 0
4.61538 -6.15385 0
5.38462 -6.15385 0
6.15385 -6.15385 0
6.92308 -6.15385 0
7.69231 -6.15385 0
8.46154 -6.15385 0
10 -6.15385 0
-10 -5.38462 0
-9.23077 -5.38462 0
-8.46154 -5.38462 0
-7.69231 -5.38462 0
-6.92308 -5.38462 0
-6.15385 -5.38462 0
-5.38462 -5.38462 0
-4.61538 -5.38462 0
-3.84615 -5.38462 0
-3.07692 -5.38462 0
-2.30769 -5.38462 0
-1.53846 -5.38462 0
-0.769231 -5.38462 0
5.55112e-016 -5.38462 0
0.769231 -5.38462 0
1.53846 -5.38462 0
2.30769 -5.38462 0
3.07692 -5.38462 0
3.84615 -5.38462 0
4.61538 -5.38462 0
5.38462 -5.38462 0
6.15385 -5.38462 0
6.92308 -5.38462 0
7.69231 -5.38462 0
8.46154 -5.38462 0
10 -5.38462 0
-10 -4.61538 0
-9.23077 -4.61538 0
-8.46154 -4.61538 0
-7.69231 -4.61538 0
-6.92308 -4.61538 0
-6.15385 -4.61538 0
-5.38462 -4.61538 0
-4.61538 -4.61538 0
-3.84615 -4.61538 0
-3.07692 -4.61538 0
-2.30769 -4.61538 0
-1.53846 -4.61538 0
-0.769231 -4.61538 0
5.55112e-016 -4.61538 0
0.769231 -4.61538 0
1.53846 -4.61538 0
2.30769 -4.61538 0
3.07692 -4.61538 0
3.84615 -4.61538 0
4.61538 -4.61538 0
5.38462 -4.61538 0
6.15385 -4.61538 0
6.92308 -4.61538 0
7.69231 -4.61538 0
8.46154 -4.61538 0
10 -4.61538 0
-10 -3.84615 0
-9.23077 -3.84615 0
-8.46154 -3.84615 0
-7.69231 -3.84615 0
-6.92308 -3.84615 0
-6.15385 -3.84615 0
-5.38462 -3.84615 0
-4.61538 -3.84615 0
-3.84615 -3.84615 0
-3.07692 -3.84615 0
-2.30769 -3.84615 0
-1.53846 -3.84615 0
-0.769231 -3.84615 0
5.55112e-016 -3.84615 0
0.769231 -3.84615 0
1.53846 -3.84615 0
2.30769 -3.84615 0
3.07692 -3.84615 0
3.84615 -3.84615 0
4.61538 -3.84615 0
5.38462 -3.84615 0
6.15385 -3.84615 0
6.92308 -3.84615 0
7.69231 -3.84615 0
8.46154 -3.84615 0
10 -3.84615 0
-10 -3.07692 0
-9.23077 -3.07692 0
-8.46154 -3.07692 0
-7.69231 -3.07692 0
-6.92308 -3.07692 0
-6.15385 -3.07692 0
-5.38462 -3.07692 0
-4.61538 -3.07692 0
-3.84615 -3.07692 0
-3.07692 -3.07692 0
-2.30769 -3.07692 0
-1.53846 -3.07692 0
-0.769231 -3.07692 0
5.55112e-016 -3.07692 0
0.769231 -3.07692 0
1.53846 -3.07692 0
2.30769 -3.07692 0
3.07692 -3.07692 0
3.84615 -3.07692 0
4.61538 -3.07692 0
5.38462 -3.07692 0
6.15385 -3.07692 0
6.92308 -3.07692 0
7.69231 -3.07692 0
8.46154 -3.07692 0
10 -3.07692 0
-10 -2.30769 0
-9.23077 -2.30769 0
-8.46154 -2.30769 0
-7.69231 -2.30769 0
-6.92308 -2.30769 0
-6.15385 -2.30769 0
-5.38462 -2.30769 0
-4.61538 -2.30769 0
-3.84615 -2.30769 0
-3.07692 -2.30769 0
-2.30769 -2.30769 0
-1.53846 -2.30769 0
-0.769231 -2.30769 0
5.55112e-016 -2.30769 0
0.769231 -2.30769 0
1.53846 -2.30769 0
2.30769 -2.30769 0
3.07692 -2.30769 0
3.84615 -2.30769 0
4.61538 -2.30769 0
5.38462 -2.30769 0
6.15385 -2.30769 0
6.92308 -2.30769 0
7.69231 -2.30769 0
8.46154 -2.30769 0
10 -2.30769 0
-10 -1.53846 0
-9.23077 -1.53846 0
-8.46154 -1.53846 0
-7.69231 -1.53846 0
-6.92308 -1.53846 0
-6.15385 -1.53846 0
-5.38462 -1.53846 0
-4.61538 -1.53846 0
-3.84615 -1.53846 0
-3.07692 -1.53846 0
-2.30769 -1.53846 0
-1.53846 -1.53846 0
-0.769231 -1.53846 0
5.55112e-016 -1.53846 0
0.769231 -1.53846 0
1.53846 -1.53846 0
2.30769 -1.53846 0
3.07692 -1.53846 0
3.84615 -1.53846 0
4.61538 -1.53846 0
5.38462 -1.53846 0
6.15385 -1.53846 0
6.92308 -1.53846 0
7.69231 -1.53846 0
8.46154 -1.53846 0
10 -1.53846 0
-10 -0.769231 0
-9.23077 -0.769231 0
-8.46154 -0.769231 0
-7.69231 -0.769231 0
-6.92308 -0.769231 0
-6.15385 -0.769231 0
-5.38462 -0.769231 0
-4.61538 -0.769231 0
-3.84615 -0.769231 0
-3.07692 -0.769231 0
-2.30769 -0.769231 0
-1.53846 -0.769231 0
-0.769231 -0.769231 0
5.55112e-016 -0.769231 0
0.769231 -0.769231 0
1.53846 -0.769231 0
2.30769 -0.769231 0
3.07692 -0.769231 0
3.84615 -0.769231 0
4.61538 -0.769231 0
5.38462 -0.769231 0
6.15385 -0.769231 0
6.92308 -0.769231 0
7.69231 -0.769231 0
8.46154 -0.769231 0
10 -0.769231 0
-10 5.55112e-016 0
-9.23077 5.55112e-016 0
-8.46154 5.55112e-016 0
-7.69231 5.55112e-016 0
-6.92308 5.55112e-016 0
-6.15385 5.55112e-016 0
-5.38462 5.55112e-016 0
-4.61538 5.55112e-016 0
-3.84615 5.55112e-016 0
-3.07692 5.55112e-016 0
-2.30769 5.55112e-016 0
-1.53846 5.55112e-016 0
-0.769231 5.55112e-016 0
5.55112e-016 5.55112e-016 0
0.769231 5.55112e-016 0
1.53846 5.55112e-016 0
2.30769 5.55112e-016 0
3.07692 5.55112e-016 0
3.84615 5.55112e-016 0
4.61538 5.55112e-016 0
5.38462 5.55112e-016 0
6.15385 5.55112e-016 0
6.92308 5.55112e-016 0
7.69231 5.55112e-016 0
8.46154 5.55112e-016 0
10 5.55112e-016 0
-10 0.769231 0
-9.23077 0.769231 0
-8.46154 0.769231 0
-7.69231 0.769231 0
-6.92308 0.769231 0
-6.15385 0.769231 0
-5.38462 0.769231 0
-4.61538 0.769231 0
-3.84615 0.769231 0
-3.07692 0.769231 0
-2.30769 0.769231 0
-1.53846 0.769231 0
-0.769231 0.769231 0
5.55112e-016 0.769231 0
0.769231 0.769231 0
1.53846 0.769231 0
2.30769 0.769231 0
3.07692 0.769231 0
3.84615 0.769231 0
4.61538 0.769231 0
5.38462 0.769231 0
6.15385 0.769231 0
6.92308 0.769231 0
7.69231 0.769231 0
8.46154 0.769231 0
10 0.769231 0
-10 1.53846 0
-9.23077 1.53846 0
-8.46154 1.53846 0
-7.69231 1.53846 0
-6.92308 1.53846 0
-6.15385 1.53846 0
-5.38462 1.53846 0
-4.61538 1.53846 0
-3.84615 1.53846 0
-3.07692 1.53846 0
-2.30769 1.53846 0
-1.53846 1.53846 0
-0.769231 1.53846 0
5.55112e-016 1.53846 0
0.769231 1.53846 0
1.53846 1.53846 0
2.30769 1.53846 0
3.07692 1.53846 0
3.84615 1.53846 0
4.61538 1.53846 0
5.38462 1.53846 0
6.15385 1.53846 0
6.92308 1.53846 0
7.69231 1.53846 0
8.46154 1.53846 0
10 1.53846 0
-10 2.30769 0
-9.23077 2.30769 0
-8.46154 2.30769 0
-7.69231 2.30769 0
-6.92308 2.30769 0
-6.15385 2.30769 0
-5.38462 2.30769 0
-4.61538 2.30769 0
-3.84615 2.30769 0
-3.07692 2.30769 0
-2.30769 2.30769 0
-1.53846 2.30769 0
-0.769231 2.30769 0
5.55112e-016 2.30769 0
0.769231 2.30769 0
1.53846 2.30769 0
2.30769 2.30769 0
3.07692 2.30769 0
3.84615 2.30769 0
4.61538 2.30769 0
5.38462 2.30769 0
6.15385 2.30769 0
6.92308 2.30769 0
7.69231 2.30769 0
8.46154 2.30769 0
10 2.30769 0
-10 3.07692 0
-9.23077 3.07692 0
-8.46154 3.07692 0
-7.69231 3.07692 0
-6.92308 3.07692 0
-6.15385 3.07692 0
-5.38462 3.07692 0
-4.61538 3.07692 0
-3.84615 3.07692 0
-3.07692 3.07692 0
-2.30769 3.07692 0
-1.53846 3.07692 0
-0.769231 3.07692 0
5.55112e-016 3.07692 0
0.769231 3.07692 0
1.53846 3.07692 0
2.30769 3.07692 0
3.07692 3.07692 0
3.84615 3.07692 0
4.61538 3.07692 0
5.38462 3.07692 0
6.15385 3.07692 0
6.92308 3.07692 0
7.69231 3.07692 0
8.46154 3.07692 0
10 3.07692 0
-10 3.84615 0
-9.23077 3.84615 0
-8.46154 3.84615 0
-7.69231 3.84615 0
-6.92308 3.84615 0
-6.15385 3.84615 0
-5.38462 3.84615 0
-4.61538 3.84615 0
-3.84615 3.84615 0
-3.07692 3.84615 0
-2.30769 3.84615 0
-1.53846 3.84615 0
-0.769231 3.84615 0
5.55112e-016 3.84615 0
0.769231 3.84615 0
1.53846 3.84615 0
2.30769 3.84615 0
3.07692 3.84615 0
3.84615 3.84615 0
4.61538 3.84615 0
5.38462 3.84615 0
6.15385 3.84615 0
6.92308 3.84615 0
7.69231 3.84615 0
8.46154 3.84615 0
10 3.84615 0
-10 4.61538 0
-9.23077 4.61538 0
-8.46154 4.61538 0
-7.69231 4.61538 0
-6.92308 4.61538 0
-6.15385 4.61538 0
-5.38462 4.61538 0
-4.61538 4.61538 0
-3.84615 4.61538 0
-3.07692 4.61538 0
-2.30769 4.61538 0
-1.53846 4.61538 0
-0.769231 4.61538 0
5.55112e-016 4.61538 0
0.769231 4.61538 0
1.53846 4.61538 0
2.30769 4.61538 0
3.07692 4.61538 0
3.84615 4.61538 0
4.61538 4.61538 0
5.38462 4.61538 0
6.15385 4.61538 0
6.92308 4.61538 0
7.69231 4.61538 0
8.46154 4.61538 0
10 4.61538 0
-10 5.38462 0
-9.23077 5.38462 0
-8.46154 5.38462 0
-7.69231 5.38462 0
-6.92308 5.38462 0
-6.15385 5.38462 0
-5.38462 5.38462 0
-4.61538 5.38462 0
-3.84615 5.38462 0
-3.07692 5.38462 0
-2.30769 5.38462 0
-1.53846 5.38462 0
-0.769231 5.38462 0
5.55112e-016 5.38462 0
0.769231 5.38462 0
1.53846 5.38462 0
2.30769 5.38462 0
3.07692 5.38462 0
3.84615 5.38462 0
4.61538 5.38462 0
5.38462 5.38462 0
6.15385 5.38462 0
6.92308 5.38462 0
7.69231 5.38462 0
8.46154 5.38462 0
10 5.38462 0
-10 6.15385 0
-9.23077 6.15385 0
-8.46154 6.15385 0
-7.69231 6.15385 0
-6.92308 6.15385 0
-6.15385 6.15385 0
-5.38462 6.15385 0
-4.61538 6.15385 0
-3.84615 6.15385 0
-3.07692 6.15385 0
-2.30769 6.15385 0
-1.53846 6.15385 0
-0.769231 6.15385 0
5.55112e-016 6.15385 0
0.769231 6.15385 0
1.53846 6.15385 0
2.30769 6.15385 0
3.07692 6.15385 0
3.84615 6.15385 0
4.61538 6.15385 0
5.38462 6.15385 0
6.15385 6.15385 0
6.92308 6.15385 0
7.69231 6.15385 0
8.46154 6.15385 0
10 6.15385 0
-10 6.92308 0
-9.23077 6.92308 0
-8.46154 6.92308 0
-7.69231 6.92308 0
-6.92308 6.92308 0
-6.15385 6.92308 0
-5.38462 6.92308 0
-4.61538 6.92308 0
-3.84615 6.92308 0
-3.07692 6.92308 0
-2.30769 6.92308 0
-1.53846 6.92308 0
-0.769231 6.92308 0
5.55112e-016 6.92308 0
0.769231 6.92308 0
1.53846 6.92308 0
2.30769 6.92308 0
3.07692 6.92308 0
3.84615 6.92308 0
4.61538 6.92308 0
5.38462 6.92308 0
6.15385 6.92308 0
6.92308 6.92308 0
7.69231 6.92308 0
8.46154 6.92308 0
10 6.92308 0
-10 7.69231 0
-9.23077 7.69231 0
-8.46154 7.69231 0
-7.69231 7.69231 0
-6.92308 7.69231 0
-6.15385 7.69231 0
-5.38462 7.69231 0
-4.61538 7.69231 0
-3.84615 7.69231 0
-3.07692 7.69231 0
-2.30769 7.69231 0
-1.53846 7.69231 0
-0.769231 7.69231 0
5.55112e-016 7.69231 0
0.769231 7.69231 0
1.53846 7.69231 0
2.30769 7.69231 0
3.07692 7.69231 0
3.84615 7.69231 0
4.61538 7.69231 0
5.38462 7.69231 0
6.15385 7.69231 0
6.92308 7.69231 0
7.69231 7.69231 0
8.46154 7.69231 0
10 7.69231 0
-10 8.46154 0
-9.23077 8.46154 0
-8.46154 8.46154 0
-7.69231 8.46154 0
-6.92308 8.46154 0
-6.15385 8.46154 0
-5.38462 8.46154 0
-4.61538 8.46154 0
-3.84615 8.46154 0
-3.07692 8.46154 0
-2.30769 8.46154 0
-1.53846 8.46154 0
-0.769231 8.46154 0
5.55112e-016 8.46154 0
0.769231 8.46154 0
1.53846 8.46154 0
2.30769 8.46154 0
3.07692 8.46154 0
3.84615 8.46154 0
4.61538 8.46154 0
5.38462 8.46154 0
6.15385 8.46154 0
6.92308 8.46154 0
7.69231 8.46154 0
8.46154 8.46154 0
10 8.46154 0
-10 10 0
-9.23077 10 0
-8.46154 10 0
-7.69231 10 0
-6.92308 10 0
-6.15385 10 0
-5.38462 10 0
-4.61538 10 0
-3.84615 10 0
-3.07692 10 0
-2.30769 10 0
-1.53846 10 0
-0.769231 10 0
5.55112e-016 10 0
0.769231 10 0
1.53846 10 0
2.30769 10 0
3.07692 10 0
3.84615 10 0
4.61538 10 0
5.38462 10 0
6.15385 10 0
6.92308 10 0
7.69231 10 0
8.46154 10 0
10 10 0

POINT_DATA 676
SCALARS h double 1
LOOkUP_TABLE default
0.828419
0.931992
0.900436
0.74051
0.524418
0.329267
0.192857
0.11287
0.0703171
0.047708
0.0344702
0.0256203
0.0191665
0.0143348
0.0107583
0.00819823
0.00648429
0.00560634
0.00630676
0.0127537
0.0380068
0.101754
0.22141
0.403841
0.626265
0.828419
1.05199
1.2847
1.33203
1.16815
0.872095
0.567324
0.334848
0.189606
0.109295
0.0667161
0.0432995
0.0293108
0.0203218
0.0143549
0.0104169
0.00791232
0.00643814
0.00572716
0.00574372
0.0076684
0.0198763
0.0713722
0.198521
0.420315
0.727661
1.05199
1.09094
1.4731
1.66137
1.56872
1.24655
0.849493
0.513067
0.287337
0.157026
0.0874609
0.0507678
0.0307315
0.0192785
0.0125596
0.00864384
0.0064641
0.00538178
0.00500856
0.00514635
0.00587695
0.00892765
0.0284861
0.117721
0.330894
0.67151
1.09094
0.885467
1.35383
1.69458
1.7484
1.4959
1.07923
0.675449
0.380993
0.20229
0.105345
0.0554349
0.0299301
0.0167112
0.00978669
0.00619956
0.00442991
0.00366145
0.00345739
0.00362448
0.00416168
0.00536102
0.00961167
0.0380763
0.169762
0.462237
0.885467
0.534332
0.965198
1.37433
1.5795
1.47785
1.14394
0.75194
0.434369
0.229181
0.114674
0.0561317
0.0274736
0.013676
0.00709138
0.00400552
0.00262273
0.00206576
0.00191441
0.00200435
0.00233984
0.00310191
0.00498625
0.0115957
0.0497091
0.210034
0.534332
0.217924
0.513349
0.866176
1.13748
1.18699
1.00247
0.703205
0.423359
0.226806
0.112008
0.0525697
0.0240119
0.0108869
0.00502546
0.00247531
0.00140384
0.0009791
0.000836865
0.000854223
0.00107094
0.00160007
0.00300665
0.00756152
0.0181617
0.0584456
0.217924
0.0553113
0.187801
0.409033
0.641621
0.768618
0.723447
0.551488
0.352415
0.195737
0.0978233
0.0453377
0.0199624
0.00851509
0.00359351
0.00155365
0.000733271
0.000409926
0.000282369
0.000237805
0.00030242
0.000746394
0.00231656
0.00770115
0.0152619
0.0216835
0.0553113
0.0167492
0.041785
0.13274
0.271204
0.393701
0.427532
0.362459
0.250474
0.146981
0.0759699
0.0356665
0.0155838
0.0064565
0.00257706
0.0010097
0.00039984
0.000165525
6.70432e-005
1.67661e-005
9.04993e-005
0.000722246
0.00334267
0.0092546
0.0156249
0.0171423
0.0167492
0.0111994
0.00858074
0.0251975
0.0770141
0.150149
0.201549
0.198088
0.151681
0.0956971
0.0520486
0.0252524
0.0112022
0.0046218
0.0017924
0.000657579
0.000233086
9.69712e-005
0.000101765
0.000216373
0.000593826
0.00196244
0.00543283
0.0111597
0.0158992
0.0156395
0.0111994
0.00902165
0.00432488
0.0033008
0.0121799
0.0371334
0.0699534
0.0867644
0.0772167
0.0536758
0.0311882
0.0158662
0.00726931
0.00304906
0.00118604
0.000447159
0.000213082
0.000233203
0.000439965
0.000883723
0.00182881
0.00394025
0.00777463
0.0126447
0.0155122
0.0138009
0.00902165
0.00700907
0.00310446
0.00111927
0.00140813
0.00526929
0.0153632
0.0275572
0.031351
0.0252851
0.0160884
0.00871159
0.00419638
0.00185263
0.000797171
0.000420844
0.000409323
0.00064672
0.0011448
0.00201483
0.00351727
0.00607113
0.00969097
0.0132423
0.0143079
0.0115798
0.00700907
0.00517119
0.00218647
0.000721547
0.000520239
0.000952396
0.002224
0.00541541
0.00887659
0.00919276
0.0068095
0.00408535
0.00217154
0.00112321
0.000684277
0.000638096
0.000873436
0.00137168
0.00218841
0.00343622
0.00527815
0.00783384
0.0107404
0.0128079
0.0124071
0.00920257
0.00517119
0.00361774
0.00144754
0.000413752
0.000171508
0.000414799
0.000463897
0.000633123
0.00128724
0.00211293
0.00218726
0.00165439
0.00113662
0.0008707
0.00087045
0.00111206
0.00159195
0.0023378
0.00340313
0.00485093
0.00670855
0.00885503
0.0107677
0.0114767
0.0100996
0.00691322
0.00361774
0.00238894
0.000889094
0.000208642
1.90739e-005
7.70418e-005
8.95136e-005
8.54954e-005
0.000171744
0.000401359
0.000679364
0.000799642
0.000872932
0.0010255
0.00131982
0.00179049
0.00246664
0.00337667
0.00454056
0.00594925
0.00751454
0.00899069
0.00988312
0.00956097
0.00771526
0.00489836
0.00238894
0.00146656
0.000477385
5.0327e-005
2.4255e-005
2.73922e-005
6.7278e-005
0.00012136
0.000219191
0.000361308
0.000572906
0.000819756
0.00110726
0.0014711
0.00194771
0.00256557
0.00334343
0.00428442
0.0053649
0.00651539
0.00758773
0.00832528
0.00837196
0.00742377
0.00552569
0.00325782
0.00146656
0.000823693
0.000231171
5.86203e-005
8.17335e-005
0.000127232
0.000204208
0.000313205
0.000462322
0.000654421
0.000904531
0.00121895
0.00160539
0.00207452
0.00263838
0.00330308
0.00406269
0.00489067
0.00573057
0.00648523
0.00700638
0.00710112
0.0065805
0.00538022
0.00370386
0.00202122
0.000823693
0.000512277
0.000260029
0.000228421
0.000286361
0.000376298
0.000495634
0.000651269
0.000850446
0.00109911
0.00140547
0.00177484
0.00221086
0.00271253
0.00327419
0.00388172
0.00450828
0.005109
0.00561722
0.00594322
0.00597978
0.00562418
0.00482581
0.00365369
0.00233656
0.00120216
0.000512277
0.000717604
0.000681228
0.000731316
0.000810347
0.000907574
0.00103022
0.00119452
0.00141239
0.00168808
0.00202099
0.00240642
0.00283645
0.00329781
0.00377147
0.00423088
0.00464061
0.0049553
0.00512105
0.00508017
0.00478212
0.00420437
0.00338258
0.00243852
0.00157309
0.000978809
0.000717604
0.00191748
0.00201484
0.0020548
0.00203197
0.00198503
0.0019736
0.00204226
0.00220456
0.00244907
0.00275395
0.0030957
0.00345127
0.00379665
0.00410612
0.00435175
0.0045043
0.00453551
0.0044225
0.00415395
0.00373815
0.00321455
0.00266571
0.00220709
0.00193134
0.0018519
0.00191748
0.00569544
0.00577918
0.00545486
0.00485015
0.00418042
0.00366044
0.00339115
0.00335433
0.00347486
0.00367527
0.00389665
0.00409799
0.00424974
0.00432943
0.00432045
0.00421424
0.00401582
0.00375244
0.00348215
0.00329527
0.00329701
0.00355794
0.00405715
0.00468291
0.00527368
0.00569544
0.0165751
0.0161685
0.0142989
0.0116093
0.00892794
0.00690189
0.00571313
0.00518127
0.00502063
0.00500482
0.00500127
0.00494535
0.00481016
0.00458906
0.00428988
0.00393816
0.00358983
0.00335454
0.0034218
0.00405444
0.00548562
0.00774005
0.0105301
0.0133218
0.0154901
0.0165751
0.0464177
0.0445022
0.0378737
0.0288834
0.0203029
0.0140101
0.0103198
0.00852281
0.00771891
0.00727217
0.00686627
0.00638825
0.00582043
0.00518504
0.00452565
0.00391243
0.00347101
0.00344298
0.00427109
0.00663093
0.0112263
0.0182994
0.0271684
0.0361994
0.0432131
0.0464177
0.122646
0.118994
0.100827
0.0750975
0.0502872
0.032015
0.0211691
0.0157044
0.0131048
0.0116193
0.0103998
0.00916869
0.00789517
0.00663074
0.00545383
0.0044744
0.00389197
0.0041295
0.00606267
0.011246
0.0217401
0.0390919
0.0627055
0.0888216
0.110958
0.122646
0.292599
0.294987
0.256572
0.193508
0.128866
0.0793032
0.04872
0.03255
0.0245127
0.0200789
0.0169273
0.0141967
0.0116876
0.00941696
0.00745315
0.00589208
0.00493958
0.00516041
0.00800873
0.0165413
0.035578
0.0703775
0.123144
0.18848
0.251391
0.292599
0.548007
0.575302
0.523329
0.408481
0.277905
0.17098
0.101408
0.0628319
0.0430132
0.0323399
0.0255226
0.0203425
0.0160761
0.0125348
0.0096706
0.00746725
0.0059825
0.00561909
0.00804015
0.0180588
0.0445755
0.0986926
0.189345
0.313802
0.447253
0.548007
0.828419
0.931992
0.900436
0.74051
0.524418
0.329267
0.192857
0.11287
0.0703171
0.047708
0.0344702
0.0256203
0.0191665
0.0143348
0.0107583
0.00819823
0.00648429
0.00560634
0.00630676
0.0127537
0.0380068
0.101754
0.22141
0.403841
0.626265
0.828419

VECTORS u double
-102.467 102.423 0.0
-107.224 103.257 0.0
-112.468 102.839 0.0
-118.067 101.747 0.0
-123.396 99.7929 0.0
-127.599 96.7726 0.0
-129.836 92.5389 0.0
-129.632 87.2603 0.0
-127.283 81.6358 0.0
-123.742 76.483 0.0
-119.788 72.0735 0.0
-115.624 68.1941 0.0
-111.103 64.5257 0.0
-105.954 60.7888 0.0
-99.8554 56.7688 0.0
-92.5184 52.382 0.0
-83.8675 47.8652 0.0
-74.4668 44.4272 0.0
-67.5277 47.2604 0.0
-71.1642 64.0845 0.0
-80.8886 81.1123 0.0
-87.9291 89.8422 0.0
-92.4415 94.2386 0.0
-96.0358 97.1499 0.0
-99.5071 99.6339 0.0
-102.467 102.423 0.0
-103.555 101.757 0.0
-107.475 103.96 0.0
-112.212 103.418 0.0
-117.557 101.997 0.0
-122.807 99.6607 0.0
-127.111 96.357 0.0
-129.694 92.0207 0.0
-130.079 86.7131 0.0
-128.308 80.829 0.0
-124.968 75.0175 0.0
-120.738 69.719 0.0
-115.902 64.9263 0.0
-110.333 60.388 0.0
-103.701 55.8349 0.0
-95.6609 51.099 0.0
-86.0911 46.2252 0.0
-75.3793 41.5586 0.0
-64.4856 37.6828 0.0
-54.8432 35.5967 0.0
-51.1972 40.4545 0.0
-64.4773 61.692 0.0
-80.6996 80.3988 0.0
-89.8518 89.3637 0.0
-95.6447 94.2887 0.0
-100.779 97.9858 0.0
-103.555 101.757 0.0
-104.153 98.0763 0.0
-107.831 101.151 0.0
-112.005 101.495 0.0
-116.898 100.376 0.0
-121.856 98.0341 0.0
-126.075 94.6137 0.0
-128.831 90.2078 0.0
-129.661 84.9167 0.0
-128.469 78.9856 0.0
-125.528 72.8518 0.0
-121.267 66.9371 0.0
-115.921 61.3886 0.0
-109.376 56.0861 0.0
-101.296 50.8365 0.0
-91.4377 45.5778 0.0
-80.0834 40.5365 0.0
-68.2396 36.1797 0.0
-57.0839 32.8666 0.0
-47.2652 30.6427 0.0
-39.2816 29.7759 0.0
-38.4036 35.4139 0.0
-59.9579 59.5881 0.0
-81.5613 79.4289 0.0
-92.7768 88.6402 0.0
-99.9616 93.8257 0.0
-104.153 98.0763 0.0
-102.17 92.3634 0.0
-106.73 95.9347 0.0
-111.085 97.316 0.0
-115.805 96.9601 0.0
-120.534 95.0626 0.0
-124.627 91.8557 0.0
-127.452 87.5696 0.0
-128.592 82.4043 0.0
-127.897 76.5836 0.0
-125.45 70.4133 0.0
-121.439 64.2206 0.0
-115.938 58.1995 0.0
-108.765 52.349 0.0
-99.5647 46.5949 0.0
-88.2353 41.0219 0.0
-75.5651 36.0379 0.0
-63.1378 32.1287 0.0
-52.0444 29.3751 0.0
-42.3699 27.5173 0.0
-33.9214 26.3348 0.0
-27.0297 26.0787 0.0
-28.3949 32.2456 0.0
-57.3095 58.151 0.0
-83.3666 78.3818 0.0
-96.0452 87.3117 0.0
-102.17 92.3634 0.0
-97.5931 85.478 0.0
-103.915 89.6738 0.0
-108.955 91.8191 0.0
-113.895 92.3075 0.0
-118.637 91.1553 0.0
-122.709 88.5092 0.0
-125.608 84.6296 0.0
-126.984 79.795 0.0
-126.692 74.2668 0.0
-124.737 68.3066 0.0
-121.154 62.1672 0.0
-115.868 56.025 0.0
-108.576 49.9359 0.0
-98.8158 43.9145 0.0
-86.4682 38.1619 0.0
-72.6663 33.2351 0.0
-59.5562 29.6339 0.0
-48.2027 27.2182 0.0
-38.2942 25.5754 0.0
-29.4742 24.5008 0.0
-21.7784 24.0126 0.0
-15.9269 24.4606 0.0
-19.9885 30.9331 0.0
-55.5938 57.0266 0.0
-85.9307 77.4476 0.0
-97.5931 85.478 0.0
-88.0791 76.8404 0.0
-99.0927 83.1668 0.0
-105.407 85.9524 0.0
-110.894 87.1319 0.0
-115.927 86.7969 0.0
-120.177 84.9432 0.0
-123.246 81.7448 0.0
-124.865 77.4843 0.0
-124.925 72.4567 0.0
-123.42 66.9287 0.0
-120.328 61.1247 0.0
-115.503 55.1989 0.0
-108.568 49.2163 0.0
-98.9454 43.2058 0.0
-86.2604 37.3512 0.0
-71.429 32.22 0.0
-56.9479 28.4294 0.0
-44.2391 25.8393 0.0
-32.7331 23.942 0.0
-22.702 22.8045 0.0
-16.1059 23.2102 0.0
-9.75424 24.132 0.0
-7.94847 26.2974 0.0
-16.7346 32.8567 0.0
-58.2216 58.4134 0.0
-88.0791 76.8404 0.0
-64.0721 61.7989 0.0
-90.7134 76.0389 0.0
-100.173 80.2024 0.0
-106.587 81.9388 0.0
-112.184 82.3274 0.0
-116.858 81.3333 0.0
-120.273 78.9893 0.0
-122.219 75.5018 0.0
-122.64 71.1584 0.0
-121.556 66.2388 0.0
-118.954 60.9698 0.0
-114.684 55.5024 0.0
-108.382 49.9017 0.0
-99.4479 44.1752 0.0
-87.2533 38.3847 0.0
-71.9613 32.8697 0.0
-55.5774 28.2749 0.0
-40.4139 24.7955 0.0
-25.9652 21.4637 0.0
-7.87978 17.1128 0.0
-4.42983 19.8224 0.0
-3.03022 25.0899 0.0
-6.28644 29.5399 0.0
-10.0404 32.0079 0.0
-20.7427 37.4043 0.0
-64.0721 61.7989 0.0
-24.6577 41.6141 0.0
-72.4667 65.2361 0.0
-92.1722 74.2123 0.0
-100.539 76.8186 0.0
-107.048 77.84 0.0
-112.471 77.6723 0.0
-116.512 76.2482 0.0
-118.972 73.6495 0.0
-119.84 70.1075 0.0
-119.189 65.9007 0.0
-117.055 61.2703 0.0
-113.334 56.3778 0.0
-107.71 51.293 0.0
-99.6146 46.0006 0.0
-88.2644 40.4305 0.0
-72.9983 34.5266 0.0
-54.3788 28.2157 0.0
-36.6611 19.3736 0.0
-40.0522 -9.24939 0.0
37.5518 -4.23346 0.0
3.31282 23.6369 0.0
-5.34634 31.6571 0.0
-8.68223 34.1266 0.0
-11.4942 35.5165 0.0
-14.6323 36.396 0.0
-24.6577 41.6141 0.0
-14.9852 38.5765 0.0
-33.897 46.4763 0.0
-77.2388 65.8549 0.0
-91.423 71.1793 0.0
-99.6231 73.052 0.0
-106.346 73.7458 0.0
-111.515 73.2958 0.0
-114.876 71.6658 0.0
-116.419 68.9955 0.0
-116.292 65.5451 0.0
-114.622 61.5783 0.0
-111.381 57.2792 0.0
-106.279 52.7204 0.0
-98.6112 47.8454 0.0
-86.8083 42.4178 0.0
-67.1725 35.9622 0.0
-34.5495 29.092 0.0
-17.2369 31.8014 0.0
-14.3747 37.4795 0.0
-10.5778 37.0283 0.0
-10.0479 36.543 0.0
-11.0601 37.3976 0.0
-12.3099 38.1389 0.0
-13.9849 38.7553 0.0
-16.0247 38.9496 0.0
-14.9852 38.5765 0.0
-15.9902 40.3328 0.0
-17.3567 39.9565 0.0
-42.4446 48.8315 0.0
-74.3218 62.5402 0.0
-87.3268 66.8246 0.0
-96.8104 68.9123 0.0
-104.166 69.7066 0.0
-109.244 69.2302 0.0
-112.009 67.5509 0.0
-112.677 64.9028 0.0
-111.518 61.5897 0.0
-108.603 57.8439 0.0
-103.51 53.7428 0.0
-94.7331 49.1748 0.0
-78.0117 43.9151 0.0
-47.7478 39.2912 0.0
-26.8714 40.2349 0.0
-22.2603 42.1664 0.0
-20.136 42.697 0.0
-17.7893 42.1094 0.0
-16.3253 41.3769 0.0
-15.7686 41.1948 0.0
-15.9257 41.2722 0.0
-16.7605 41.4075 0.0
-18.0913 41.2027 0.0
-15.9902 40.3328 0.0
-17.8393 41.9779 0.0
-18.0421 40.9753 0.0
-17.6986 37.4621 0.0
-35.4388 43.7636 0.0
-61.1013 54.9851 0.0
-79.291 61.2371 0.0
-91.9047 64.4748 0.0
-100.558 65.7591 0.0
-105.732 65.4163 0.0
-107.832 63.7358 0.0
-107.321 61.1032 0.0
-104.312 57.8515 0.0
-97.8083 54.1146 0.0
-84.3898 49.9147 0.0
-59.8279 46.2035 0.0
-37.6989 45.5334 0.0
-29.5552 46.1049 0.0
-26.489 46.1343 0.0
-24.388 45.7364 0.0
-22.3329 45.0514 0.0
-20.734 44.3568 0.0
-19.7194 43.9335 0.0
-19.3306 43.7083 0.0
-19.6112 43.5307 0.0
-20.4273 43.0569 0.0
-17.8393 41.9779 0.0
-20.0046 43.3775 0.0
-20.0112 42.0927 0.0
-17.5098 37.1224 0.0
-12.2767 30.6743 0.0
-20.5406 35.8687 0.0
-44.4866 46.1756 0.0
-69.2302 54.996 0.0
-86.1461 59.9774 0.0
-96.1593 61.914 0.0
-100.758 61.6461 0.0
-100.916 59.8657 0.0
-96.6014 57.1419 0.0
-85.8647 53.9174 0.0
-66.5911 51.0225 0.0
-46.9952 49.8126 0.0
-37.0474 49.632 0.0
-32.8011 49.3036 0.0
-30.2447 48.7327 0.0
-28.1299 48.0455 0.0
-26.149 47.3025 0.0
-24.4892 46.6038 0.0
-23.269 46.0659 0.0
-22.5744 45.6564 0.0
-22.4909 45.2583 0.0
-22.9428 44.5967 0.0
-20.0046 43.3775 0.0
-22.4114 44.6013 0.0
-22.2783 43.0679 0.0
-19.17 37.2291 0.0
1.89382 11.2057 0.0
-6.20848 21.8828 0.0
-11.8374 27.7916 0.0
-32.081 36.7241 0.0
-61.8037 48.4861 0.0
-81.0842 55.494 0.0
-89.252 57.9508 0.0
-89.349 57.6963 0.0
-81.685 56.0702 0.0
-67.4062 54.3557 0.0
-52.8377 53.3974 0.0
-43.8417 52.8921 0.0
-39.145 52.3138 0.0
-36.182 51.5884 0.0
-33.798 50.7907 0.0
-31.6551 49.9807 0.0
-29.6781 49.1883 0.0
-27.9696 48.4544 0.0
-26.6265 47.8268 0.0
-25.7398 47.2798 0.0
-25.4109 46.7169 0.0
-25.6024 45.9189 0.0
-22.4114 44.6013 0.0
-24.9664 45.6872 0.0
-24.522 43.7079 0.0
-18.1302 33.1182 0.0
12.8589 -7.3687 0.0
10.0524 -0.247638 0.0
17.9147 -4.03426 0.0
20.4066 -6.53393 0.0
-28.0137 31.1161 0.0
-59.1791 49.1147 0.0
-70.4007 55.098 0.0
-70.1411 56.9168 0.0
-63.353 57.0168 0.0
-55.4611 56.6183 0.0
-49.4464 56.0252 0.0
-45.3149 55.2647 0.0
-42.231 54.3985 0.0
-39.6375 53.4906 0.0
-37.286 52.5828 0.0
-35.1095 51.699 0.0
-33.1099 50.8548 0.0
-31.3548 50.0687 0.0
-29.9229 49.3584 0.0
-28.902 48.6991 0.0
-28.3968 48.0086 0.0
-28.3847 47.1047 0.0
-24.9664 45.6872 0.0
-27.4978 46.6596 0.0
-26.5404 44.2108 0.0
10.4455 -7.13822 0.0
6.17927 -2.34656 0.0
-8.81769 16.2028 0.0
-40.8252 45.4601 0.0
-55.3126 56.7028 0.0
-58.938 59.2447 0.0
-61.4595 60.6954 0.0
-62.1931 60.7318 0.0
-61.0881 60.625 0.0
-58.129 60.0548 0.0
-54.6754 59.2218 0.0
-51.4057 58.267 0.0
-48.4358 57.2553 0.0
-45.7168 56.2324 0.0
-43.1885 55.2228 0.0
-40.8161 54.2409 0.0
-38.6007 53.2956 0.0
-36.5655 52.3958 0.0
-34.7613 51.5508 0.0
-33.2543 50.7661 0.0
-32.1256 50.0178 0.0
-31.4721 49.2323 0.0
-31.254 48.2357 0.0
-27.4978 46.6596 0.0
-29.5464 47.3828 0.0
-25.9202 42.1471 0.0
-32.1865 47.0315 0.0
-55.1757 66.8591 0.0
-65.5908 71.566 0.0
-69.4268 70.5167 0.0
-71.3341 69.5683 0.0
-70.736 68.0453 0.0
-69.0656 66.6623 0.0