# vtk DataFile Version 2.0
Particulate Flow Equations Solution
ASCII
DATASET STRUCTURED_GRID
DIMENSIONS 26 26 1
POINTS 676 double
-10 -10 0
-9.23077 -10 0
-8.46154 -10 0
-7.69231 -10 0
-6.92308 -10 0
-6.15385 -10 0
-5.38462 -10 0
-4.61538 -10 0
-3.84615 -10 0
-3.07692 -10 0
-2.30769 -10 0
-1.53846 -10 0
-0.769231 -10 0
5.55112e-016 -10 0
0.769231 -10 0
1.53846 -10 0
2.30769 -10 0
3.07692 -10 0
3.84615 -10 0
4.61538 -10 0
5.38462 -10 0
6.15385 -10 0
6.92308 -10 0
7.69231 -10 0
8.46154 -10 0
10 -10 0
-10 -9.23077 0
-9.23077 -9.23077 0
-8.46154 -9.23077 0
-7.69231 -9.23077 0
-6.92308 -9.23077 0
-6.15385 -9.23077 0
-5.38462 -9.23077 0
-4.61538 -9.23077 0
-3.84615 -9.23077 0
-3.07692 -9.23077 0
-2.30769 -9.23077 0
-1.53846 -9.23077 0
-0.769231 -9.23077 0
5.55112e-016 -9.23077 0
0.769231 -9.23077 0
1.53846 -9.23077 0
2.30769 -9.23077 0
3.07692 -9.23077 0
3.84615 -9.23077 0
4.61538 -9.23077 0
5.38462 -9.23077 0
6.15385 -9.23077 0
6.92308 -9.23077 0
7.69231 -9.23077 0
8.46154 -9.23077 0
10 -9.23077 0
-10 -8.46154 0
-9.23077 -8.46154 0
-8.46154 -8.46154 0
-7.69231 -8.46154 0
-6.92308 -8.46154 0
-6.15385 -8.46154 0
-5.38462 -8.46154 0
-4.61538 -8.46154 0
-3.84615 -8.46154 0
-3.07692 -8.46154 0
-2.30769 -8.46154 0
-1.53846 -8.46154 0
-0.769231 -8.46154 0
5.55112e-016 -8.46154 0
0.769231 -8.46154 0
1.53846 -8.46154 0
2.30769 -8.46154 0
3.07692 -8.46154 0
3.84615 -8.46154 0
4.61538 -8.46154 0
5.38462 -8.46154 0
6.15385 -8.46154 0
6.92308 -8.46154 0
7.69231 -8.46154 0
8.46154 -8.46154 0
10 -8.46154 0
-10 -7.69231 0
-9.23077 -7.69231 0
-8.46154 -7.69231 0
-7.69231 -7.69231 0
-6.92308 -7.69231 0
-6.15385 -7.69231 0
-5.38462 -7.69231 0
-4.61538 -7.69231 0
-3.84615 -7.69231 0
-3.07692 -7.69231 0
-2.30769 -7.69231 0
-1.53846 -7.69231 0
-0.769231 -7.69231 0
5.55112e-016 -7.69231 0
0.769231 -7.69231 0
1.53846 -7.69231 0
2.30769 -7.69231 0
3.07692 -7.69231 0
3.84615 -7.69231 0
4.61538 -7.69231 0
5.38462 -7.69231 0
6.15385 -7.69231 0
6.92308 -7.69231 0
7.69231 -7.69231 0
8.46154 -7.69231 0
10 -7.69231 0
-10 -6.92308 0
-9.23077 -6.92308 0
-8.46154 -6.92308 0
-7.69231 -6.92308 0
-6.92308 -6.92308 0
-6.15385 -6.92308 0
-5.38462 -6.92308 0
-4.61538 -6.92308 0
-3.84615 -6.92308 0
-3.07692 -6.92308 0
-2.30769 -6.92308 0
-1.53846 -6.92308 0
-0.769231 -6.92308 0
5.55112e-016 -6.92308 0
0.769231 -6.92308 0
1.53846 -6.92308 0
2.30769 -6.92308 0
3.07692 -6.92308 0
3.84615 -6.92308 0
4.61538 -6.92308 0
5.38462 -6.92308 0
6.15385 -6.92308 0
6.92308 -6.92308 0
7.69231 -6.92308 0
8.46154 -6.92308 0
10 -6.92308 0
-10 -6.15385 0
-9.23077 -6.15385 0
-8.46154 -6.15385 0
-7.69231 -6.15385 0
-6.92308 -6.15385 0
-6.15385 -6.15385 0
-5.38462 -6.15385 0
-4.61538 -6.15385 0
-3.84615 -6.15385 0
-3.07692 -6.15385 0
-2.30769 -6.15385 0
-1.53846 -6.15385 0
-0.769231 -6.15385 0
5.55112e-016 -6.15385 0
0.769231 -6.15385 0
1.53846 -6.15385 0
2.30769 -6.15385 0
3.07692 -6.15385 0
3.84615 -6.15385 0
4.61538 -6.15385 0
5.38462 -6.15385 0
6.15385 -6.15385 0
6.92308 -6.15385 0
7.69231 -6.15385 0
8.46154 -6.15385 0
10 -6.15385 0
-10 -5.38462 0
-9.23077 -5.38462 0
-8.46154 -5.38462 0
-7.69231 -5.38462 0
-6.92308 -5.38462 0
-6.15385 -5.38462 0
-5.38462 -5.38462 0
-4.61538 -5.38462 0
-3.84615 -5.38462 0
-3.07692 -5.38462 0
-2.30769 -5.38462 0
-1.53846 -5.38462 0
-0.769231 -5.38462 0
5.55112e-016 -5.38462 0
0.769231 -5.38462 0
1.53846 -5.38462 0
2.30769 -5.38462 0
3.07692 -5.38462 0
3.84615 -5.38462 0
4.61538 -5.38462 0
5.38462 -5.38462 0
6.15385 -5.38462 0
6.92308 -5.38462 0
7.69231 -5.38462 0
8.46154 -5.38462 0
10 -5.38462 0
-10 -4.61538 0
-9.23077 -4.61538 0
-8.46154 -4.61538 0
-7.69231 -4.61538 0
-6.92308 -4.61538 0
-6.15385 -4.61538 0
-5.38462 -4.61538 0
-4.61538 -4.61538 0
-3.84615 -4.61538 0
-3.07692 -4.61538 0
-2.30769 -4.61538 0
-1.53846 -4.61538 0
-0.769231 -4.61538 0
5.55112e-016 -4.61538 0
0.769231 -4.61538 0
1.53846 -4.61538 0
2.30769 -4.61538 0
3.07692 -4.61538 0
3.84615 -4.61538 0
4.61538 -4.61538 0
5.38462 -4.61538 0
6.15385 -4.61538 0
6.92308 -4.61538 0
7.69231 -4.61538 0
8.46154 -4.61538 0
10 -4.61538 0
-10 -3.84615 0
-9.23077 -3.84615 0
-8.46154 -3.84615 0
-7.69231 -3.84615 0
-6.92308 -3.84615 0
-6.15385 -3.84615 0
-5.38462 -3.84615 0
-4.61538 -3.84615 0
-3.84615 -3.84615 0
-3.07692 -3.84615 0
-2.30769 -3.84615 0
-1.53846 -3.84615 0
-0.769231 -3.84615 0
5.55112e-016 -3.84615 0
0.769231 -3.84615 0
1.53846 -3.84615 0
2.30769 -3.84615 0
3.07692 -3.84615 0
3.84615 -3.84615 0
4.61538 -3.84615 0
5.38462 -3.84615 0
6.15385 -3.84615 0
6.92308 -3.84615 0
7.69231 -3.84615 0
8.46154 -3.84615 0
10 -3.84615 0
-10 -3.07692 0
-9.23077 -3.07692 0
-8.46154 -3.07692 0
-7.69231 -3.07692 0
-6.92308 -3.07692 0
-6.15385 -3.07692 0
-5.38462 -3.07692 0
-4.61538 -3.07692 0
-3.84615 -3.07692 0
-3.07692 -3.07692 0
-2.30769 -3.07692 0
-1.53846 -3.07692 0
-0.769231 -3.07692 0
5.55112e-016 -3.07692 0
0.769231 -3.07692 0
1.53846 -3.07692 0
2.30769 -3.07692 0
3.07692 -3.07692 0
3.84615 -3.07692 0
4.61538 -3.07692 0
5.38462 -3.07692 0
6.15385 -3.07692 0
6.92308 -3.07692 0
7.69231 -3.07692 0
8.46154 -3.07692 0
10 -3.07692 0
-10 -2.30769 0
-9.23077 -2.30769 0
-8.46154 -2.30769 0
-7.69231 -2.30769 0
-6.92308 -2.30769 0
-6.15385 -2.30769 0
-5.38462 -2.30769 0
-4.61538 -2.30769 0
-3.84615 -2.30769 0
-3.07692 -2.30769 0
-2.30769 -2.30769 0
-1.53846 -2.30769 0
-0.769231 -2.30769 0
5.55112e-016 -2.30769 0
0.769231 -2.30769 0
1.53846 -2.30769 0
2.30769 -2.30769 0
3.07692 -2.30769 0
3.84615 -2.30769 0
4.61538 -2.30769 0
5.38462 -2.30769 0
6.15385 -2.30769 0
6.92308 -2.30769 0
7.69231 -2.30769 0
8.46154 -2.30769 0
10 -2.30769 0
-10 -1.53846 0
-9.23077 -1.53846 0
-8.46154 -1.53846 0
-7.69231 -1.53846 0
-6.92308 -1.53846 0
-6.15385 -1.53846 0
-5.38462 -1.53846 0
-4.61538 -1.53846 0
-3.84615 -1.53846 0
-3.07692 -1.53846 0
-2.30769 -1.53846 0
-1.53846 -1.53846 0
-0.769231 -1.53846 0
5.55112e-016 -1.53846 0
0.769231 -1.53846 0
1.53846 -1.53846 0
2.30769 -1.53846 0
3.07692 -1.53846 0
3.84615 -1.53846 0
4.61538 -1.53846 0
5.38462 -1.53846 0
6.15385 -1.53846 0
6.92308 -1.53846 0
7.69231 -1.53846 0
8.46154 -1.53846 0
10 -1.53846 0
-10 -0.769231 0
-9.23077 -0.769231 0
-8.46154 -0.769231 0
-7.69231 -0.769231 0
-6.92308 -0.769231 0
-6.15385 -0.769231 0
-5.38462 -0.769231 0
-4.61538 -0.769231 0
-3.84615 -0.769231 0
-3.07692 -0.769231 0
-2.30769 -0.769231 0
-1.53846 -0.769231 0
-0.769231 -0.769231 0
5.55112e-016 -0.769231 0
0.769231 -0.769231 0
1.53846 -0.769231 0
2.30769 -0.769231 0
3.07692 -0.769231 0
3.84615 -0.769231 0
4.61538 -0.769231 0
5.38462 -0.769231 0
6.15385 -0.769231 0
6.92308 -0.769231 0
7.69231 -0.769231 0
8.46154 -0.769231 0
10 -0.769231 0
-10 5.55112e-016 0
-9.23077 5.55112e-016 0
-8.46154 5.55112e-016 0
-7.69231 5.55112e-016 0
-6.92308 5.55112e-016 0
-6.15385 5.55112e-016 0
-5.38462 5.55112e-016 0
-4.61538 5.55112e-016 0
-3.84615 5.55112e-016 0
-3.07692 5.55112e-016 0
-2.30769 5.55112e-016 0
-1.53846 5.55112e-016 0
-0.769231 5.55112e-016 0
5.55112e-016 5.55112e-016 0
0.769231 5.55112e-016 0
1.53846 5.55112e-016 0
2.30769 5.55112e-016 0
3.07692 5.55112e-016 0
3.84615 5.55112e-016 0
4.61538 5.55112e-016 0
5.38462 5.55112e-016 0
6.15385 5.55112e-016 0
6.92308 5.55112e-016 0
7.69231 5.55112e-016 0
8.46154 5.55112e-016 0
10 5.55112e-016 0
-10 0.769231 0
-9.23077 0.769231 0
-8.46154 0.769231 0
-7.69231 0.769231 0
-6.92308 0.769231 0
-6.15385 0.769231 0
-5.38462 0.769231 0
-4.61538 0.769231 0
-3.84615 0.769231 0
-3.07692 0.769231 0
-2.30769 0.769231 0
-1.53846 0.769231 0
-0.769231 0.769231 0
5.55112e-016 0.769231 0
0.769231 0.769231 0
1.53846 0.769231 0
2.30769 0.769231 0
3.07692 0.769231 0
3.84615 0.769231 0
4.61538 0.769231 0
5.38462 0.769231 0
6.15385 0.769231 0
6.92308 0.769231 0
7.69231 0.769231 0
8.46154 0.769231 0
10 0.769231 0
-10 1.53846 0
-9.23077 1.53846 0
-8.46154 1.53846 0
-7.69231 1.53846 0
-6.92308 1.53846 0
-6.15385 1.53846 0
-5.38462 1.53846 0
-4.61538 1.53846 0
-3.84615 1.53846 0
-3.07692 1.53846 0
-2.30769 1.53846 0
-1.53846 1.53846 0
-0.769231 1.53846 0
5.55112e-016 1.53846 0
0.769231 1.53846 0
1.53846 1.53846 0
2.30769 1.53846 0
3.07692 1.53846 0
3.84615 1.53846 0
4.61538 1.53846 0
5.38462 1.53846 0
6.15385 1.53846 0
6.92308 1.53846 0
7.69231 1.53846 0
8.46154 1.53846 0
10 1.53846 0
-10 2.30769 0
-9.23077 2.30769 0
-8.46154 2.30769 0
-7.69231 2.30769 0
-6.92308 2.30769 0
-6.15385 2.30769 0
-5.38462 2.30769 0
-4.61538 2.30769 0
-3.84615 2.30769 0
-3.07692 2.30769 0
-2.30769 2.30769 0
-1.53846 2.30769 0
-0.769231 2.30769 0
5.55112e-016 2.30769 0
0.769231 2.30769 0
1.53846 2.30769 0
2.30769 2.30769 0
3.07692 2.30769 0
3.84615 2.30769 0
4.61538 2.30769 0
5.38462 2.30769 0
6.15385 2.30769 0
6.92308 2.30769 0
7.69231 2.30769 0
8.46154 2.30769 0
10 2.30769 0
-10 3.07692 0
-9.23077 3.07692 0
-8.46154 3.07692 0
-7.69231 3.07692 0
-6.92308 3.07692 0
-6.15385 3.07692 0
-5.38462 3.07692 0
-4.61538 3.07692 0
-3.84615 3.07692 0
-3.07692 3.07692 0
-2.30769 3.07692 0
-1.53846 3.07692 0
-0.769231 3.07692 0
5.55112e-016 3.07692 0
0.769231 3.07692 0
1.53846 3.07692 0
2.30769 3.07692 0
3.07692 3.07692 0
3.84615 3.07692 0
4.61538 3.07692 0
5.38462 3.07692 0
6.15385 3.07692 0
6.92308 3.07692 0
7.69231 3.07692 0
8.46154 3.07692 0
10 3.07692 0
-10 3.84615 0
-9.23077 3.84615 0
-8.46154 3.84615 0
-7.69231 3.84615 0
-6.92308 3.84615 0
-6.15385 3.84615 0
-5.38462 3.84615 0
-4.61538 3.84615 0
-3.84615 3.84615 0
-3.07692 3.84615 0
-2.30769 3.84615 0
-1.53846 3.84615 0
-0.769231 3.84615 0
5.55112e-016 3.84615 0
0.769231 3.84615 0
1.53846 3.84615 0
2.30769 3.84615 0
3.07692 3.84615 0
3.84615 3.84615 0
4.61538 3.84615 0
5.38462 3.84615 0
6.15385 3.84615 0
6.92308 3.84615 0
7.69231 3.84615 0
8.46154 3.84615 0
10 3.84615 0
-10 4.61538 0
-9.23077 4.61538 0
-8.46154 4.61538 0
-7.69231 4.61538 0
-6.92308 4.61538 0
-6.15385 4.61538 0
-5.38462 4.61538 0
-4.61538 4.61538 0
-3.84615 4.61538 0
-3.07692 4.61538 0
-2.30769 4.61538 0
-1.53846 4.61538 0
-0.769231 4.61538 0
5.55112e-016 4.61538 0
0.769231 4.61538 0
1.53846 4.61538 0
2.30769 4.61538 0
3.07692 4.61538 0
3.84615 4.61538 0
4.61538 4.61538 0
5.38462 4.61538 0
6.15385 4.61538 0
6.92308 4.61538 0
7.69231 4.61538 0
8.46154 4.61538 0
10 4.61538 0
-10 5.38462 0
-9.23077 5.38462 0
-8.46154 5.38462 0
-7.69231 5.38462 0
-6.92308 5.38462 0
-6.15385 5.38462 0
-5.38462 5.38462 0
-4.61538 5.38462 0
-3.84615 5.38462 0
-3.07692 5.38462 0
-2.30769 5.38462 0
-1.53846 5.38462 0
-0.769231 5.38462 0
5.55112e-016 5.38462 0
0.769231 5.38462 0
1.53846 5.38462 0
2.30769 5.38462 0
3.07692 5.38462 0
3.84615 5.38462 0
4.61538 5.38462 0
5.38462 5.38462 0
6.15385 5.38462 0
6.92308 5.38462 0
7.69231 5.38462 0
8.46154 5.38462 0
10 5.38462 0
-10 6.15385 0
-9.23077 6.15385 0
-8.46154 6.15385 0
-7.69231 6.15385 0
-6.92308 6.15385 0
-6.15385 6.15385 0
-5.38462 6.15385 0
-4.61538 6.15385 0
-3.84615 6.15385 0
-3.07692 6.15385 0
-2.30769 6.15385 0
-1.53846 6.15385 0
-0.769231 6.15385 0
5.55112e-016 6.15385 0
0.769231 6.15385 0
1.53846 6.15385 0
2.30769 6.15385 0
3.07692 6.15385 0
3.84615 6.15385 0
4.61538 6.15385 0
5.38462 6.15385 0
6.15385 6.15385 0
6.92308 6.15385 0
7.69231 6.15385 0
8.46154 6.15385 0
10 6.15385 0
-10 6.92308 0
-9.23077 6.92308 0
-8.46154 6.92308 0
-7.69231 6.92308 0
-6.92308 6.92308 0
-6.15385 6.92308 0
-5.38462 6.92308 0
-4.61538 6.92308 0
-3.84615 6.92308 0
-3.07692 6.92308 0
-2.30769 6.92308 0
-1.53846 6.92308 0
-0.769231 6.92308 0
5.55112e-016 6.92308 0
0.769231 6.92308 0
1.53846 6.92308 0
2.30769 6.92308 0
3.07692 6.92308 0
3.84615 6.92308 0
4.61538 6.92308 0
5.38462 6.92308 0
6.15385 6.92308 0
6.92308 6.92308 0
7.69231 6.92308 0
8.46154 6.92308 0
10 6.92308 0
-10 7.69231 0
-9.23077 7.69231 0
-8.46154 7.69231 0
-7.69231 7.69231 0
-6.92308 7.69231 0
-6.15385 7.69231 0
-5.38462 7.69231 0
-4.61538 7.69231 0
-3.84615 7.69231 0
-3.07692 7.69231 0
-2.30769 7.69231 0
-1.53846 7.69231 0
-0.769231 7.69231 0
5.55112e-016 7.69231 0
0.769231 7.69231 0
1.53846 7.69231 0
2.30769 7.69231 0
3.07692 7.69231 0
3.84615 7.69231 0
4.61538 7.69231 0
5.38462 7.69231 0
6.15385 7.69231 0
6.92308 7.69231 0
7.69231 7.69231 0
8.46154 7.69231 0
10 7.69231 0
-10 8.46154 0
-9.23077 8.46154 0
-8.46154 8.46154 0
-7.69231 8.46154 0
-6.92308 8.46154 0
-6.15385 8.46154 0
-5.38462 8.46154 0
-4.61538 8.46154 0
-3.84615 8.46154 0
-3.07692 8.46154 0
-2.30769 8.46154 0
-1.53846 8.46154 0
-0.769231 8.46154 0
5.55112e-016 8.46154 0
0.769231 8.46154 0
1.53846 8.46154 0
2.30769 8.46154 0
3.07692 8.46154 0
3.84615 8.46154 0
4.61538 8.46154 0
5.38462 8.46154 0
6.15385 8.46154 0
6.92308 8.46154 0
7.69231 8.46154 0
8.46154 8.46154 0
10 8.46154 0
-10 10 0
-9.23077 10 0
-8.46154 10 0
-7.69231 10 0
-6.92308 10 0
-6.15385 10 0
-5.38462 10 0
-4.61538 10 0
-3.84615 10 0
-3.07692 10 0
-2.30769 10 0
-1.53846 10 0
-0.769231 10 0
5.55112e-016 10 0
0.769231 10 0
1.53846 10 0
2.30769 10 0
3.07692 10 0
3.84615 10 0
4.61538 10 0
5.38462 10 0
6.15385 10 0
6.92308 10 0
7.69231 10 0
8.46154 10 0
10 10 0

POINT_DATA 676
SCALARS h double 1
LOOkUP_TABLE default
0.0109373
0.0111509
0.0129271
0.0167905
0.0233345
0.0329776
0.0456084
0.0603185
0.0754244
0.0888357
0.0986142
0.103465
0.102975
0.097582
0.0883805
0.0768417
0.0644997
0.0526535
0.042167
0.0334275
0.026448
0.0210326
0.0169284
0.0139271
0.0119213
0.0109373
0.0117245
0.0116518
0.0134481
0.017897
0.0260499
0.0389362
0.0569989
0.0794814
0.104131
0.12751
0.145868
0.156221
0.157135
0.14899
0.133713
0.114168
0.093379
0.0738292
0.0570465
0.0435773
0.0332566
0.0255708
0.0199473
0.0159209
0.0132047
0.0117245
0.0125172
0.011862
0.0132563
0.017686
0.0266851
0.0420996
0.0653903
0.0966012
0.133458
0.171227
0.203673
0.22486
0.230997
0.221538
0.19916
0.168731
0.135728
0.104722
0.0784848
0.0579341
0.0426711
0.0316889
0.023907
0.0184503
0.0147407
0.0125172
0.0133902
0.0118878
0.0124643
0.016155
0.0248345
0.0411612
0.067938
0.106785
0.156486
0.211878
0.264252
0.30358
0.321783
0.315536
0.287307
0.244197
0.195224
0.148368
0.108669
0.0779096
0.0555223
0.0398346
0.0290287
0.021621
0.0165949
0.0133902
0.0144234
0.0119049
0.0113907
0.0137544
0.0209137
0.0360368
0.0631919
0.106057
0.165714
0.238297
0.313966
0.378569
0.417994
0.423406
0.394694
0.340252
0.273272
0.206669
0.149264
0.104682
0.0725231
0.0503842
0.035484
0.025503
0.018812
0.0144234
0.0156424
0.0120553
0.0103962
0.0111874
0.0160383
0.0280993
0.0521403
0.0936778
0.156775
0.240763
0.337309
0.430136
0.499021
0.527143
0.508194
0.449017
0.366138
0.278405
0.200201
0.138502
0.0938966
0.0634491
0.0432957
0.0300758
0.0213707
0.0156424
0.0169972
0.0123784
0.00970772
0.00906224
0.0114855
0.0195669
0.0379353
0.0730074
0.131385
0.21653
0.324385
0.440357
0.540893
0.601
0.604834
0.553162
0.462618
0.357276
0.25832
0.177896
0.118946
0.0786636
0.0522409
0.0351886
0.0241689
0.0169972
0.0183839
0.0128181
0.00935441
0.00764336
0.00809883
0.0124184
0.0243268
0.0499234
0.0969312
0.172212
0.27722
0.402843
0.527302
0.620946
0.65791
0.628593
0.544419
0.431278
0.316623
0.219109
0.145744
0.0950378
0.0617949
0.0405501
0.0270367
0.0183839
0.0196823
0.0132798
0.00923437
0.00685719
0.00604493
0.0075963
0.0139362
0.0298835
0.0626651
0.120581
0.209546
0.327507
0.459313
0.57692
0.648375
0.652647
0.590769
0.484698
0.364886
0.256218
0.171122
0.11095
0.0711415
0.0457495
0.0297637
0.0196823
0.0207805
0.0136785
0.00922031
0.00647638
0.00500558
0.00494968
0.00750209
0.015773
0.0353842
0.0740607
0.13967
0.235864
0.356045
0.479527
0.575257
0.614603
0.586383
0.502901
0.392024
0.282117
0.191046
0.124298
0.0792419
0.0502927
0.0321208
0.0207805
0.0215756
0.0139521
0.00921926
0.00629301
0.00454527
0.00375354
0.00427517
0.00765777
0.0175039
0.0397558
0.0818515
0.150156
0.245059
0.355469
0.457541
0.522111
0.528979
0.478307
0.389746
0.290338
0.201391
0.132786
0.0849378
0.0536359
0.0338691
0.0215756
0.0219641
0.0140512
0.00917658
0.00618095
0.0043481
0.00329582
0.00296728
0.00389268
0.00786492
0.0186717
0.0420223
0.0842949
0.149526
0.234604
0.325402
0.398626
0.431568
0.41453
0.35617
0.277315
0.199052
0.134382
0.0871041
0.0552258
0.0347606
0.0219641
0.0218387
0.0139275
0.00905847
0.00607967
0.00425312
0.00314445
0.00254256
0.00250971
0.00368736
0.00795414
0.0189394
0.0416174
0.0807341
0.137701
0.206665
0.272938
0.31736
0.325852
0.29747
0.244217
0.183174
0.127928
0.0848979
0.0545801
0.0345567
0.0218387
0.0211079
0.0135367
0.00884104
0.00596353
0.00419817
0.00311277
0.00245728
0.00213603
0.00228683
0.00359252
0.00784445
0.018214
0.0385937
0.0718788
0.117219
0.167522
0.21005
0.231688
0.226123
0.197232
0.155948
0.113773
0.0781016
0.0514398
0.0330862
0.0211079
0.019739
0.0128557
0.00851278
0.0058259
0.00416894
0.00314504
0.0025111
0.00213492
0.00199351
0.002265
0.00360848
0.00758296
0.0167044
0.0336545
0.0596583
0.0924638
0.12536
0.149059
0.156248
0.145659
0.122309
0.0940243
0.0674125
0.0459533
0.0303395
0.019739
0.0178073
0.0119087
0.00808542
0.00567781
0.00417654
0.00324352
0.00266329
0.00230766
0.00211602
0.00210926
0.00248033
0.00381529
0.00735238
0.0148811
0.0279596
0.0466119
0.0681677
0.0873889
0.0985753
0.0985736
0.0883735
0.0720864
0.0544364
0.0387753
0.026551
0.0178073
0.0155192
0.0107852
0.00760482
0.00555261
0.00425371
0.00344256
0.00294184
0.00264119
0.00247939
0.0024387
0.00256623
0.00305179
0.00437757
0.00743342
0.0133262
0.0227279
0.0350182
0.0478491
0.0577774
0.0618902
0.059333
0.0515619
0.0412663
0.0309643
0.0222028
0.0155192
0.0131818
0.00963565
0.0071539
0.00551037
0.00445865
0.00380721
0.00341985
0.00320799
0.00311997
0.00313354
0.00325735
0.00355241
0.00418841
0.00552364
0.00811557
0.0125115
0.0188002
0.0261846
0.0329899
0.0373133
0.0379753
0.0350814
0.0298065
0.0236762
0.0179146
0.0131818
0.0111226
0.00864175
0.00684341
0.0056382
0.00488088
0.00444257
0.00422285
0.0041523
0.00418916
0.00431469
0.00452985
0.00485751
0.00535674
0.00615324
0.00746527
0.009563
0.0126041
0.0163957
0.0202689
0.0232476
0.0244854
0.0236859
0.0212054
0.0178019
0.0142578
0.0111226
0.00959479
0.00796925
0.00679193
0.00604484
0.00564615
0.00550788
0.005551
0.00571467
0.00595988
0.00626886
0.00664113
0.00708781
0.00762815
0.00829352
0.00913875
0.0102441
0.0116761
0.0133988
0.0151875
0.0166392
0.0173214
0.0169832
0.0156821
0.013742
0.0115905
0.00959479
0.00871562
0.0077254
0.00710028
0.00684781
0.00691532
0.00722934
0.00770843
0.0082779
0.00888233
0.00949178
0.0100989
0.010708
0.0113212
0.01193
0.0125168
0.0130679
0.0135808
0.0140491
0.0144264
0.014603
0.0144344
0.0138177
0.0127651
0.0114182
0.009996
0.00871562
0.00846333
0.00793601
0.00782485
0.00814891
0.00886743
0.00989899
0.0111273
0.012423
0.0136721
0.014798
0.0157656
0.0165665
0.0171955
0.0176325
0.0178411
0.0177862
0.0174583
0.0168854
0.0161174
0.0151976
0.0141462
0.0129757
0.0117232
0.0104716
0.00934175
0.00846333
0.00872266
0.00854604
0.00895246
0.00999321
0.0116524
0.0138361
0.0163587
0.0189697
0.0214122
0.0234826
0.0250609
0.0261017
0.0265999
0.02656
0.0259879
0.0249072
0.0233836
0.0215338
0.0195054
0.0174398
0.0154436
0.0135856
0.0119175
0.0104973
0.00940182
0.00872266
0.00935103
0.00944023
0.0103825
0.0123159
0.0153073
0.0192892
0.0239931
0.0289615
0.0336449
0.0375401
0.040298
0.0417558
0.0419044
0.0408358
0.0387087
0.0357412
0.0322061
0.0284061
0.024627
0.0210907
0.0179339
0.0152197
0.0129713
0.0112089
0.00997596
0.00935103
0.0101384
0.0103805
0.0118238
0.0147616
0.0194536
0.0259717
0.0340246
0.0428899
0.051529
0.0588455
0.0639626
0.0663906
0.0660495
0.0631961
0.0583277
0.0520927
0.0451962
0.0382908
0.0318768
0.0262522
0.0215269
0.0176843
0.0146558
0.012382
0.0108543
0.0101384
0.0109373
0.0111509
0.0129271
0.0167905
0.0233345
0.0329776
0.0456084
0.0603185
0.0754244
0.0888357
0.0986142
0.103465
0.102975
0.097582
0.0883805
0.0768417
0.0644997
0.0526535
0.042167
0.0334275
0.026448
0.0210326
0.0169284
0.0139271
0.0119213
0.0109373

VECTORS u double
-138.944 108.493 0.0
-135.208 110.541 0.0
-131.516 114.902 0.0
-128.884 120.33 0.0
-127.593 125.387 0.0
-127.323 129.438 0.0
-127.64 132.488 0.0
-128.242 134.744 0.0
-128.98 136.39 0.0
-129.814 137.54 0.0
-130.769 138.249 0.0
-131.907 138.534 0.0
-133.288 138.393 0.0
-134.943 137.815 0.0
-136.842 136.788 0.0
-138.888 135.3 0.0
-140.93 133.345 0.0
-142.794 130.928 0.0
-144.327 128.079 0.0
-145.421 124.856 0.0
-146.017 121.358 0.0
-146.076 117.731 0.0
-145.54 114.183 0.0
-144.289 111.041 0.0
-142.142 108.859 0.0
-138.944 108.493 0.0
-141.255 107.876 0.0
-137.173 109.384 0.0
-132.962 113.615 0.0
-129.874 119.429 0.0
-128.382 124.987 0.0
-128.13 129.411 0.0
-128.582 132.701 0.0
-129.373 135.125 0.0
-130.324 136.909 0.0
-131.381 138.186 0.0
-132.559 139.017 0.0
-133.911 139.42 0.0
-135.488 139.393 0.0
-137.313 138.924 0.0
-139.351 138.001 0.0
-141.5 136.609 0.0
-143.605 134.735 0.0
-145.49 132.374 0.0
-146.998 129.538 0.0
-148.026 126.275 0.0
-148.527 122.678 0.0
-148.487 118.888 0.0
-147.884 115.103 0.0
-146.636 111.613 0.0
-144.563 108.914 0.0
-141.255 107.876 0.0
-143.738 106.987 0.0
-139.493 107.531 0.0
-134.765 111.276 0.0
-131.037 117.381 0.0
-129.147 123.57 0.0
-128.786 128.522 0.0
-129.298 132.161 0.0
-130.224 134.823 0.0
-131.345 136.795 0.0
-132.588 138.241 0.0
-133.959 139.229 0.0
-135.501 139.779 0.0
-137.258 139.888 0.0
-139.246 139.545 0.0
-141.428 138.74 0.0
-143.698 137.46 0.0
-145.896 135.692 0.0
-147.842 133.422 0.0
-149.372 130.651 0.0
-150.382 127.411 0.0
-150.834 123.779 0.0
-150.734 119.889 0.0
-150.093 115.922 0.0
-148.871 112.123 0.0
-146.908 108.887 0.0
-143.738 106.987 0.0
-146.043 106.056 0.0
-141.952 105.352 0.0
-136.912 108.066 0.0
-132.432 114.145 0.0
-129.921 121.05 0.0
-129.302 126.712 0.0
-129.793 130.826 0.0
-130.807 133.796 0.0
-132.063 135.998 0.0
-133.461 137.642 0.0
-134.995 138.816 0.0
-136.699 139.542 0.0
-138.611 139.814 0.0
-140.745 139.619 0.0
-143.061 138.948 0.0
-145.453 137.795 0.0
-147.761 136.15 0.0
-149.798 133.999 0.0
-151.396 131.334 0.0
-152.441 128.17 0.0
-152.892 124.567 0.0
-152.765 120.639 0.0
-152.094 116.551 0.0
-150.877 112.508 0.0
-149.003 108.807 0.0
-146.043 106.056 0.0
-148.036 105.225 0.0
-144.32 103.27 0.0
-139.323 104.399 0.0
-134.147 109.796 0.0
-130.773 117.34 0.0
-129.699 123.926 0.0
-130.075 128.68 0.0
-131.132 132.038 0.0
-132.493 134.503 0.0
-134.022 136.364 0.0
-135.696 137.742 0.0
-137.54 138.665 0.0
-139.588 139.125 0.0
-141.849 139.105 0.0
-144.284 138.593 0.0
-146.791 137.585 0.0
-149.212 136.077 0.0
-151.358 134.061 0.0
-153.054 131.528 0.0
-154.174 128.48 0.0
-154.665 124.954 0.0
-154.538 121.044 0.0
-153.837 116.894 0.0
-152.594 112.687 0.0
-150.77 108.652 0.0
-148.036 105.225 0.0
-149.621 104.522 0.0
-146.332 101.584 0.0
-141.751 100.902 0.0
-136.226 104.666 0.0
-131.822 112.371 0.0
-130.028 120.079 0.0
-130.16 125.717 0.0
-131.207 129.583 0.0
-132.647 132.352 0.0
-134.289 134.439 0.0
-136.089 136.023 0.0
-138.06 137.153 0.0
-140.23 137.821 0.0
-142.605 138.001 0.0
-145.149 137.676 0.0
-147.762 136.837 0.0
-150.293 135.485 0.0
-152.552 133.618 0.0
-154.359 131.23 0.0
-155.576 128.318 0.0
-156.131 124.903 0.0
-156.023 121.055 0.0
-155.296 116.902 0.0
-154.01 112.612 0.0
-152.189 108.381 0.0
-149.621 104.522 0.0
-150.787 103.917 0.0
-147.818 100.385 0.0
-143.811 98.1832 0.0
-138.501 99.5465 0.0
-133.198 106.245 0.0
-130.368 115.031 0.0
-130.067 121.903 0.0
-131.04 126.487 0.0
-132.534 129.636 0.0
-134.275 131.961 0.0
-136.19 133.744 0.0
-138.281 135.075 0.0
-140.568 135.955 0.0
-143.052 136.354 0.0
-145.698 136.24 0.0
-148.412 135.6 0.0
-151.044 134.428 0.0
-153.412 132.728 0.0
-155.331 130.497 0.0
-156.65 127.733 0.0
-157.28 124.448 0.0
-157.203 120.698 0.0
-156.461 116.596 0.0
-155.13 112.299 0.0
-153.279 107.991 0.0
-150.787 103.917 0.0
-151.582 103.409 0.0
-148.771 99.6163 0.0
-145.214 96.4966 0.0
-140.513 95.532 0.0
-134.897 99.6422 0.0
-130.832 108.632 0.0
-129.815 117.099 0.0
-130.625 122.773 0.0
-132.153 126.46 0.0
-133.984 129.064 0.0
-136.007 131.04 0.0
-138.214 132.554 0.0
-140.614 133.635 0.0
-143.206 134.254 0.0
-145.952 134.37 0.0
-148.76 133.953 0.0
-151.488 132.99 0.0
-153.956 131.48 0.0
-155.977 129.424 0.0
-157.393 126.822 0.0
-158.101 123.688 0.0
-158.065 120.068 0.0
-157.324 116.065 0.0
-155.96 111.832 0.0
-154.068 107.541 0.0
-151.582 103.409 0.0
-152.06 103.043 0.0
-149.284 99.2039 0.0
-145.941 95.7056 0.0
-141.795 93.2709 0.0
-136.548 94.1199 0.0
-131.509 101.152 0.0
-129.411 111.005 0.0
-129.924 118.328 0.0
-131.482 122.881 0.0
-133.409 125.879 0.0
-135.54 128.065 0.0
-137.856 129.745 0.0
-140.366 131.004 0.0
-143.063 131.829 0.0
-145.907 132.175 0.0
-148.806 131.998 0.0
-151.621 131.268 0.0
-154.177 129.976 0.0
-156.289 128.12 0.0
-157.794 125.704 0.0
-158.578 122.745 0.0
-158.594 119.289 0.0
-157.872 115.434 0.0
-156.497 111.325 0.0
-154.573 107.126 0.0
-152.06 103.043 0.0
-152.251 102.879 0.0
-149.45 99.1153 0.0
-146.141 95.5589 0.0
-142.258 92.5421 0.0
-137.546 91.1055 0.0
-132.265 94.2222 0.0
-128.858 103.442 0.0
-128.816 112.805 0.0
-130.43 118.813 0.0
-132.508 122.473 0.0
-134.771 124.951 0.0
-137.201 126.799 0.0
-139.815 128.21 0.0
-142.611 129.214 0.0
-145.546 129.774 0.0
-148.528 129.835 0.0
-151.421 129.355 0.0
-154.054 128.306 0.0
-156.245 126.68 0.0
-157.83 124.481 0.0
-158.69 121.73 0.0
-158.769 118.477 0.0
-158.088 114.815 0.0
-156.729 110.884 0.0
-154.794 106.84 0.0
-152.251 102.879 0.0
-152.16 102.948 0.0
-149.319 99.3318 0.0
-145.957 95.8727 0.0
-142.104 92.7789 0.0
-137.666 90.4542 0.0
-132.622 90.3152 0.0
-128.18 95.6628 0.0
-127.083 105.741 0.0
-128.753 113.907 0.0
-131.142 118.766 0.0
-133.633 121.752 0.0
-136.214 123.825 0.0
-138.941 125.382 0.0
-141.831 126.535 0.0
-144.847 127.278 0.0
-147.903 127.56 0.0
-150.863 127.326 0.0
-153.561 126.535 0.0
-155.819 125.166 0.0
-157.478 123.218 0.0
-158.415 120.713 0.0
-158.57 117.702 0.0
-157.953 114.278 0.0
-156.638 110.572 0.0
-154.718 106.732 0.0
-152.16 102.948 0.0
-151.775 103.23 0.0
-148.9 99.81 0.0
-145.46 96.5265 0.0
-141.53 93.571 0.0
-137.119 91.153 0.0
-132.263 89.7494 0.0
-127.389 91.019 0.0
-124.677 97.9101 0.0
-125.969 107.608 0.0
-128.944 114.431 0.0
-131.932 118.381 0.0
-134.8 120.854 0.0
-137.693 122.595 0.0
-140.69 123.882 0.0
-143.787 124.775 0.0
-146.907 125.247 0.0
-149.924 125.241 0.0
-152.676 124.706 0.0
-154.993 123.608 0.0
-156.719 121.937 0.0
-157.735 119.711 0.0
-157.978 116.98 0.0
-157.448 113.833 0.0
-156.204 110.393 0.0
-154.326 106.797 0.0
-151.775 103.23 0.0
-151.07 103.657 0.0
-148.177 100.471 0.0
-144.661 97.4158 0.0
-140.625 94.6987 0.0
-136.139 92.4976 0.0
-131.318 91.0075 0.0
-126.384 90.6783 0.0
-122.299 93.128 0.0
-121.8 100.456 0.0
-125.168 108.974 0.0
-129.165 114.555 0.0
-132.689 117.793 0.0
-135.93 119.853 0.0
-139.114 121.3 0.0
-142.319 122.323 0.0
-145.511 122.95 0.0
-148.583 123.141 0.0
-151.384 122.843 0.0
-153.755 122.013 0.0
-155.545 120.63 0.0
-156.642 118.704 0.0
-156.981 116.281 0.0
-156.555 113.44 0.0
-155.405 110.296 0.0
-153.593 106.975 0.0
-151.07 103.657 0.0
-150.013 104.133 0.0
-147.115 101.214 0.0
-143.535 98.4398 0.0
-139.404 96.0388 0.0
-134.832 94.1976 0.0
-129.998 93.0481 0.0
-125.117 92.6789 0.0
-120.559 93.3943 0.0
-117.713 96.4617 0.0
-119.339 103.082 0.0
-124.339 109.981 0.0
-129.215 114.44 0.0
-133.277 117.083 0.0
-136.892 118.782 0.0
-140.325 119.946 0.0
-143.645 120.701 0.0
-146.797 121.053 0.0
-149.659 120.96 0.0
-152.087 120.376 0.0
-153.944 119.273 0.0
-155.126 117.652 0.0
-155.569 115.548 0.0
-155.258 113.03 0.0
-154.218 110.199 0.0
-152.49 107.175 0.0
-150.013 104.133 0.0
-148.56 104.56 0.0
-145.67 101.948 0.0
-142.045 99.5192 0.0
-137.845 97.5268 0.0
-133.228 96.1679 0.0
-128.422 95.5461 0.0
-123.666 95.6441 0.0
-119.181 96.3896 0.0
-115.4 97.8851 0.0
-113.888 100.86 0.0
-117.068 105.875 0.0
-123.205 110.88 0.0
-128.881 114.241 0.0
-133.511 116.314 0.0
-137.499 117.654 0.0
-141.124 118.524 0.0
-144.451 119 0.0
-147.427 119.071 0.0
-149.943 118.698 0.0
-151.887 117.85 0.0
-153.165 116.519 0.0
-153.719 114.726 0.0
-153.532 112.53 0.0
-152.612 110.019 0.0
-150.979 107.304 0.0
-148.56 104.56 0.0
-146.667 104.871 0.0
-143.802 102.617 0.0
-140.159 100.623 0.0
-135.94 99.1622 0.0
-131.354 98.4281 0.0
-126.673 98.4774 0.0
-122.153 99.2151 0.0
-117.973 100.457 0.0
-114.292 102.022 0.0
-111.537 103.842 0.0
-111.148 106.126 0.0
-115.031 109.085 0.0
-121.672 112.008 0.0
-127.989 114.157 0.0
-133.182 115.579 0.0
-137.527 116.503 0.0
-141.278 117.042 0.0
-144.514 117.218 0.0
-147.208 117.002 0.0
-149.291 116.364 0.0
-150.699 115.286 0.0
-151.387 113.78 0.0
-151.336 111.889 0.0
-150.545 109.691 0.0
-149.017 107.291 0.0
-146.667 104.871 0.0