# vtk DataFile Version 2.0
Particulate Flow Equations Solution
ASCII
DATASET STRUCTURED_GRID
DIMENSIONS 26 26 1
POINTS 676 double
-10 -10 0
-9.23077 -10 0
-8.46154 -10 0
-7.69231 -10 0
-6.92308 -10 0
-6.15385 -10 0
-5.38462 -10 0
-4.61538 -10 0
-3.84615 -10 0
-3.07692 -10 0
-2.30769 -10 0
-1.53846 -10 0
-0.769231 -10 0
5.55112e-016 -10 0
0.769231 -10 0
1.53846 -10 0
2.30769 -10 0
3.07692 -10 0
3.84615 -10 0
4.61538 -10 0
5.38462 -10 0
6.15385 -10 0
6.92308 -10 0
7.69231 -10 0
8.46154 -10 0
10 -10 0
-10 -9.23077 0
-9.23077 -9.23077 0
-8.46154 -9.23077 0
-7.69231 -9.23077 0
-6.92308 -9.23077 0
-6.15385 -9.23077 0
-5.38462 -9.23077 0
-4.61538 -9.23077 0
-3.84615 -9.23077 0
-3.07692 -9.23077 0
-2.30769 -9.23077 0
-1.53846 -9.23077 0
-0.769231 -9.23077 0
5.55112e-016 -9.23077 0
0.769231 -9.23077 0
1.53846 -9.23077 0
2.30769 -9.23077 0
3.07692 -9.23077 0
3.84615 -9.23077 0
4.61538 -9.23077 0
5.38462 -9.23077 0
6.15385 -9.23077 0
6.92308 -9.23077 0
7.69231 -9.23077 0
8.46154 -9.23077 0
10 -9.23077 0
-10 -8.46154 0
-9.23077 -8.46154 0
-8.46154 -8.46154 0
-7.69231 -8.46154 0
-6.92308 -8.46154 0
-6.15385 -8.46154 0
-5.38462 -8.46154 0
-4.61538 -8.46154 0
-3.84615 -8.46154 0
-3.07692 -8.46154 0
-2.30769 -8.46154 0
-1.53846 -8.46154 0
-0.769231 -8.46154 0
5.55112e-016 -8.46154 0
0.769231 -8.46154 0
1.53846 -8.46154 0
2.30769 -8.46154 0
3.07692 -8.46154 0
3.84615 -8.46154 0
4.61538 -8.46154 0
5.38462 -8.46154 0
6.15385 -8.46154 0
6.92308 -8.46154 0
7.69231 -8.46154 0
8.46154 -8.46154 0
10 -8.46154 0
-10 -7.69231 0
-9.23077 -7.69231 0
-8.46154 -7.69231 0
-7.69231 -7.69231 0
-6.92308 -7.69231 0
-6.15385 -7.69231 0
-5.38462 -7.69231 0
-4.61538 -7.69231 0
-3.84615 -7.69231 0
-3.07692 -7.69231 0
-2.30769 -7.69231 0
-1.53846 -7.69231 0
-0.769231 -7.69231 0
5.55112e-016 -7.69231 0
0.769231 -7.69231 0
1.53846 -7.69231 0
2.30769 -7.69231 0
3.07692 -7.69231 0
3.84615 -7.69231 0
4.61538 -7.69231 0
5.38462 -7.69231 0
6.15385 -7.69231 0
6.92308 -7.69231 0
7.69231 -7.69231 0
8.46154 -7.69231 0
10 -7.69231 0
-10 -6.92308 0
-9.23077 -6.92308 0
-8.46154 -6.92308 0
-7.69231 -6.92308 0
-6.92308 -6.92308 0
-6.15385 -6.92308 0
-5.38462 -6.92308 0
-4.61538 -6.92308 0
-3.84615 -6.92308 0
-3.07692 -6.92308 0
-2.30769 -6.92308 0
-1.53846 -6.92308 0
-0.769231 -6.92308 0
5.55112e-016 -6.92308 0
0.769231 -6.92308 0
1.53846 -6.92308 0
2.30769 -6.92308 0
3.07692 -6.92308 0
3.84615 -6.92308 0
4.61538 -6.92308 0
5.38462 -6.92308 0
6.15385 -6.92308 0
6.92308 -6.92308 0
7.69231 -6.92308 0
8.46154 -6.92308 0
10 -6.92308 0
-10 -6.15385 0
-9.23077 -6.15385 0
-8.46154 -6.15385 0
-7.69231 -6.15385 0
-6.92308 -6.15385 0
-6.15385 -6.15385 0
-5.38462 -6.15385 0
-4.61538 -6.15385 0
-3.84615 -6.15385 0
-3.07692 -6.15385 0
-2.30769 -6.15385 0
-1.53846 -6.15385 0
-0.769231 -6.15385 0
5.55112e-016 -6.15385 0
0.769231 -6.15385 0
1.53846 -6.15385 0
2.30769 -6.15385 0
3.07692 -6.15385 0
3.84615 -6.15385 0
4.61538 -6.15385 0
5.38462 -6.15385 0
6.15385 -6.15385 0
6.92308 -6.15385 0
7.69231 -6.15385 0
8.46154 -6.15385 0
10 -6.15385 0
-10 -5.38462 0
-9.23077 -5.38462 0
-8.46154 -5.38462 0
-7.69231 -5.38462 0
-6.92308 -5.38462 0
-6.15385 -5.38462 0
-5.38462 -5.38462 0
-4.61538 -5.38462 0
-3.84615 -5.38462 0
-3.07692 -5.38462 0
-2.30769 -5.38462 0
-1.53846 -5.38462 0
-0.769231 -5.38462 0
5.55112e-016 -5.38462 0
0.769231 -5.38462 0
1.53846 -5.38462 0
2.30769 -5.38462 0
3.07692 -5.38462 0
3.84615 -5.38462 0
4.61538 -5.38462 0
5.38462 -5.38462 0
6.15385 -5.38462 0
6.92308 -5.38462 0
7.69231 -5.38462 0
8.46154 -5.38462 0
10 -5.38462 0
-10 -4.61538 0
-9.23077 -4.61538 0
-8.46154 -4.61538 0
-7.69231 -4.61538 0
-6.92308 -4.61538 0
-6.15385 -4.61538 0
-5.38462 -4.61538 0
-4.61538 -4.61538 0
-3.84615 -4.61538 0
-3.07692 -4.61538 0
-2.30769 -4.61538 0
-1.53846 -4.61538 0
-0.769231 -4.61538 0
5.55112e-016 -4.61538 0
0.769231 -4.61538 0
1.53846 -4.61538 0
2.30769 -4.61538 0
3.07692 -4.61538 0
3.84615 -4.61538 0
4.61538 -4.61538 0
5.38462 -4.61538 0
6.15385 -4.61538 0
6.92308 -4.61538 0
7.69231 -4.61538 0
8.46154 -4.61538 0
10 -4.61538 0
-10 -3.84615 0
-9.23077 -3.84615 0
-8.46154 -3.84615 0
-7.69231 -3.84615 0
-6.92308 -3.84615 0
-6.15385 -3.84615 0
-5.38462 -3.84615 0
-4.61538 -3.84615 0
-3.84615 -3.84615 0
-3.07692 -3.84615 0
-2.30769 -3.84615 0
-1.53846 -3.84615 0
-0.769231 -3.84615 0
5.55112e-016 -3.84615 0
0.769231 -3.84615 0
1.53846 -3.84615 0
2.30769 -3.84615 0
3.07692 -3.84615 0
3.84615 -3.84615 0
4.61538 -3.84615 0
5.38462 -3.84615 0
6.15385 -3.84615 0
6.92308 -3.84615 0
7.69231 -3.84615 0
8.46154 -3.84615 0
10 -3.84615 0
-10 -3.07692 0
-9.23077 -3.07692 0
-8.46154 -3.07692 0
-7.69231 -3.07692 0
-6.92308 -3.07692 0
-6.15385 -3.07692 0
-5.38462 -3.07692 0
-4.61538 -3.07692 0
-3.84615 -3.07692 0
-3.07692 -3.07692 0
-2.30769 -3.07692 0
-1.53846 -3.07692 0
-0.769231 -3.07692 0
5.55112e-016 -3.07692 0
0.769231 -3.07692 0
1.53846 -3.07692 0
2.30769 -3.07692 0
3.07692 -3.07692 0
3.84615 -3.07692 0
4.61538 -3.07692 0
5.38462 -3.07692 0
6.15385 -3.07692 0
6.92308 -3.07692 0
7.69231 -3.07692 0
8.46154 -3.07692 0
10 -3.07692 0
-10 -2.30769 0
-9.23077 -2.30769 0
-8.46154 -2.30769 0
-7.69231 -2.30769 0
-6.92308 -2.30769 0
-6.15385 -2.30769 0
-5.38462 -2.30769 0
-4.61538 -2.30769 0
-3.84615 -2.30769 0
-3.07692 -2.30769 0
-2.30769 -2.30769 0
-1.53846 -2.30769 0
-0.769231 -2.30769 0
5.55112e-016 -2.30769 0
0.769231 -2.30769 0
1.53846 -2.30769 0
2.30769 -2.30769 0
3.07692 -2.30769 0
3.84615 -2.30769 0
4.61538 -2.30769 0
5.38462 -2.30769 0
6.15385 -2.30769 0
6.92308 -2.30769 0
7.69231 -2.30769 0
8.46154 -2.30769 0
10 -2.30769 0
-10 -1.53846 0
-9.23077 -1.53846 0
-8.46154 -1.53846 0
-7.69231 -1.53846 0
-6.92308 -1.53846 0
-6.15385 -1.53846 0
-5.38462 -1.53846 0
-4.61538 -1.53846 0
-3.84615 -1.53846 0
-3.07692 -1.53846 0
-2.30769 -1.53846 0
-1.53846 -1.53846 0
-0.769231 -1.53846 0
5.55112e-016 -1.53846 0
0.769231 -1.53846 0
1.53846 -1.53846 0
2.30769 -1.53846 0
3.07692 -1.53846 0
3.84615 -1.53846 0
4.61538 -1.53846 0
5.38462 -1.53846 0
6.15385 -1.53846 0
6.92308 -1.53846 0
7.69231 -1.53846 0
8.46154 -1.53846 0
10 -1.53846 0
-10 -0.769231 0
-9.23077 -0.769231 0
-8.46154 -0.769231 0
-7.69231 -0.769231 0
-6.92308 -0.769231 0
-6.15385 -0.769231 0
-5.38462 -0.769231 0
-4.61538 -0.769231 0
-3.84615 -0.769231 0
-3.07692 -0.769231 0
-2.30769 -0.769231 0
-1.53846 -0.769231 0
-0.769231 -0.769231 0
5.55112e-016 -0.769231 0
0.769231 -0.769231 0
1.53846 -0.769231 0
2.30769 -0.769231 0
3.07692 -0.769231 0
3.84615 -0.769231 0
4.61538 -0.769231 0
5.38462 -0.769231 0
6.15385 -0.769231 0
6.92308 -0.769231 0
7.69231 -0.769231 0
8.46154 -0.769231 0
10 -0.769231 0
-10 5.55112e-016 0
-9.23077 5.55112e-016 0
-8.46154 5.55112e-016 0
-7.69231 5.55112e-016 0
-6.92308 5.55112e-016 0
-6.15385 5.55112e-016 0
-5.38462 5.55112e-016 0
-4.61538 5.55112e-016 0
-3.84615 5.55112e-016 0
-3.07692 5.55112e-016 0
-2.30769 5.55112e-016 0
-1.53846 5.55112e-016 0
-0.769231 5.55112e-016 0
5.55112e-016 5.55112e-016 0
0.769231 5.55112e-016 0
1.53846 5.55112e-016 0
2.30769 5.55112e-016 0
3.07692 5.55112e-016 0
3.84615 5.55112e-016 0
4.61538 5.55112e-016 0
5.38462 5.55112e-016 0
6.15385 5.55112e-016 0
6.92308 5.55112e-016 0
7.69231 5.55112e-016 0
8.46154 5.55112e-016 0
10 5.55112e-016 0
-10 0.769231 0
-9.23077 0.769231 0
-8.46154 0.769231 0
-7.69231 0.769231 0
-6.92308 0.769231 0
-6.15385 0.769231 0
-5.38462 0.769231 0
-4.61538 0.769231 0
-3.84615 0.769231 0
-3.07692 0.769231 0
-2.30769 0.769231 0
-1.53846 0.769231 0
-0.769231 0.769231 0
5.55112e-016 0.769231 0
0.769231 0.769231 0
1.53846 0.769231 0
2.30769 0.769231 0
3.07692 0.769231 0
3.84615 0.769231 0
4.61538 0.769231 0
5.38462 0.769231 0
6.15385 0.769231 0
6.92308 0.769231 0
7.69231 0.769231 0
8.46154 0.769231 0
10 0.769231 0
-10 1.53846 0
-9.23077 1.53846 0
-8.46154 1.53846 0
-7.69231 1.53846 0
-6.92308 1.53846 0
-6.15385 1.53846 0
-5.38462 1.53846 0
-4.61538 1.53846 0
-3.84615 1.53846 0
-3.07692 1.53846 0
-2.30769 1.53846 0
-1.53846 1.53846 0
-0.769231 1.53846 0
5.55112e-016 1.53846 0
0.769231 1.53846 0
1.53846 1.53846 0
2.30769 1.53846 0
3.07692 1.53846 0
3.84615 1.53846 0
4.61538 1.53846 0
5.38462 1.53846 0
6.15385 1.53846 0
6.92308 1.53846 0
7.69231 1.53846 0
8.46154 1.53846 0
10 1.53846 0
-10 2.30769 0
-9.23077 2.30769 0
-8.46154 2.30769 0
-7.69231 2.30769 0
-6.92308 2.30769 0
-6.15385 2.30769 0
-5.38462 2.30769 0
-4.61538 2.30769 0
-3.84615 2.30769 0
-3.07692 2.30769 0
-2.30769 2.30769 0
-1.53846 2.30769 0
-0.769231 2.30769 0
5.55112e-016 2.30769 0
0.769231 2.30769 0
1.53846 2.30769 0
2.30769 2.30769 0
3.07692 2.30769 0
3.84615 2.30769 0
4.61538 2.30769 0
5.38462 2.30769 0
6.15385 2.30769 0
6.92308 2.30769 0
7.69231 2.30769 0
8.46154 2.30769 0
10 2.30769 0
-10 3.07692 0
-9.23077 3.07692 0
-8.46154 3.07692 0
-7.69231 3.07692 0
-6.92308 3.07692 0
-6.15385 3.07692 0
-5.38462 3.07692 0
-4.61538 3.07692 0
-3.84615 3.07692 0
-3.07692 3.07692 0
-2.30769 3.07692 0
-1.53846 3.07692 0
-0.769231 3.07692 0
5.55112e-016 3.07692 0
0.769231 3.07692 0
1.53846 3.07692 0
2.30769 3.07692 0
3.07692 3.07692 0
3.84615 3.07692 0
4.61538 3.07692 0
5.38462 3.07692 0
6.15385 3.07692 0
6.92308 3.07692 0
7.69231 3.07692 0
8.46154 3.07692 0
10 3.07692 0
-10 3.84615 0
-9.23077 3.84615 0
-8.46154 3.84615 0
-7.69231 3.84615 0
-6.92308 3.84615 0
-6.15385 3.84615 0
-5.38462 3.84615 0
-4.61538 3.84615 0
-3.84615 3.84615 0
-3.07692 3.84615 0
-2.30769 3.84615 0
-1.53846 3.84615 0
-0.769231 3.84615 0
5.55112e-016 3.84615 0
0.769231 3.84615 0
1.53846 3.84615 0
2.30769 3.84615 0
3.07692 3.84615 0
3.84615 3.84615 0
4.61538 3.84615 0
5.38462 3.84615 0
6.15385 3.84615 0
6.92308 3.84615 0
7.69231 3.84615 0
8.46154 3.84615 0
10 3.84615 0
-10 4.61538 0
-9.23077 4.61538 0
-8.46154 4.61538 0
-7.69231 4.61538 0
-6.92308 4.61538 0
-6.15385 4.61538 0
-5.38462 4.61538 0
-4.61538 4.61538 0
-3.84615 4.61538 0
-3.07692 4.61538 0
-2.30769 4.61538 0
-1.53846 4.61538 0
-0.769231 4.61538 0
5.55112e-016 4.61538 0
0.769231 4.61538 0
1.53846 4.61538 0
2.30769 4.61538 0
3.07692 4.61538 0
3.84615 4.61538 0
4.61538 4.61538 0
5.38462 4.61538 0
6.15385 4.61538 0
6.92308 4.61538 0
7.69231 4.61538 0
8.46154 4.61538 0
10 4.61538 0
-10 5.38462 0
-9.23077 5.38462 0
-8.46154 5.38462 0
-7.69231 5.38462 0
-6.92308 5.38462 0
-6.15385 5.38462 0
-5.38462 5.38462 0
-4.61538 5.38462 0
-3.84615 5.38462 0
-3.07692 5.38462 0
-2.30769 5.38462 0
-1.53846 5.38462 0
-0.769231 5.38462 0
5.55112e-016 5.38462 0
0.769231 5.38462 0
1.53846 5.38462 0
2.30769 5.38462 0
3.07692 5.38462 0
3.84615 5.38462 0
4.61538 5.38462 0
5.38462 5.38462 0
6.15385 5.38462 0
6.92308 5.38462 0
7.69231 5.38462 0
8.46154 5.38462 0
10 5.38462 0
-10 6.15385 0
-9.23077 6.15385 0
-8.46154 6.15385 0
-7.69231 6.15385 0
-6.92308 6.15385 0
-6.15385 6.15385 0
-5.38462 6.15385 0
-4.61538 6.15385 0
-3.84615 6.15385 0
-3.07692 6.15385 0
-2.30769 6.15385 0
-1.53846 6.15385 0
-0.769231 6.15385 0
5.55112e-016 6.15385 0
0.769231 6.15385 0
1.53846 6.15385 0
2.30769 6.15385 0
3.07692 6.15385 0
3.84615 6.15385 0
4.61538 6.15385 0
5.38462 6.15385 0
6.15385 6.15385 0
6.92308 6.15385 0
7.69231 6.15385 0
8.46154 6.15385 0
10 6.15385 0
-10 6.92308 0
-9.23077 6.92308 0
-8.46154 6.92308 0
-7.69231 6.92308 0
-6.92308 6.92308 0
-6.15385 6.92308 0
-5.38462 6.92308 0
-4.61538 6.92308 0
-3.84615 6.92308 0
-3.07692 6.92308 0
-2.30769 6.92308 0
-1.53846 6.92308 0
-0.769231 6.92308 0
5.55112e-016 6.92308 0
0.769231 6.92308 0
1.53846 6.92308 0
2.30769 6.92308 0
3.07692 6.92308 0
3.84615 6.92308 0
4.61538 6.92308 0
5.38462 6.92308 0
6.15385 6.92308 0
6.92308 6.92308 0
7.69231 6.92308 0
8.46154 6.92308 0
10 6.92308 0
-10 7.69231 0
-9.23077 7.69231 0
-8.46154 7.69231 0
-7.69231 7.69231 0
-6.92308 7.69231 0
-6.15385 7.69231 0
-5.38462 7.69231 0
-4.61538 7.69231 0
-3.84615 7.69231 0
-3.07692 7.69231 0
-2.30769 7.69231 0
-1.53846 7.69231 0
-0.769231 7.69231 0
5.55112e-016 7.69231 0
0.769231 7.69231 0
1.53846 7.69231 0
2.30769 7.69231 0
3.07692 7.69231 0
3.84615 7.69231 0
4.61538 7.69231 0
5.38462 7.69231 0
6.15385 7.69231 0
6.92308 7.69231 0
7.69231 7.69231 0
8.46154 7.69231 0
10 7.69231 0
-10 8.46154 0
-9.23077 8.46154 0
-8.46154 8.46154 0
-7.69231 8.46154 0
-6.92308 8.46154 0
-6.15385 8.46154 0
-5.38462 8.46154 0
-4.61538 8.46154 0
-3.84615 8.46154 0
-3.07692 8.46154 0
-2.30769 8.46154 0
-1.53846 8.46154 0
-0.769231 8.46154 0
5.55112e-016 8.46154 0
0.769231 8.46154 0
1.53846 8.46154 0
2.30769 8.46154 0
3.07692 8.46154 0
3.84615 8.46154 0
4.61538 8.46154 0
5.38462 8.46154 0
6.15385 8.46154 0
6.92308 8.46154 0
7.69231 8.46154 0
8.46154 8.46154 0
10 8.46154 0
-10 10 0
-9.23077 10 0
-8.46154 10 0
-7.69231 10 0
-6.92308 10 0
-6.15385 10 0
-5.38462 10 0
-4.61538 10 0
-3.84615 10 0
-3.07692 10 0
-2.30769 10 0
-1.53846 10 0
-0.769231 10 0
5.55112e-016 10 0
0.769231 10 0
1.53846 10 0
2.30769 10 0
3.07692 10 0
3.84615 10 0
4.61538 10 0
5.38462 10 0
6.15385 10 0
6.92308 10 0
7.69231 10 0
8.46154 10 0
10 10 0

POINT_DATA 676
SCALARS h double 1
LOOkUP_TABLE default
0.126758
0.12378
0.117559
0.108975
0.0990647
0.0886753
0.0784276
0.0687436
0.0598961
0.0520564
0.0453332
0.0398075
0.0355679
0.0327517
0.0315876
0.0324291
0.0357478
0.0420396
0.0516115
0.0642844
0.0791558
0.0946014
0.108597
0.119265
0.125397
0.126758
0.153325
0.152679
0.14689
0.137091
0.12476
0.111269
0.097675
0.0847092
0.0728274
0.0622837
0.0531995
0.0456246
0.0395919
0.0351722
0.0325317
0.0319896
0.0340563
0.0394056
0.0487073
0.0622857
0.0796933
0.099452
0.11915
0.136092
0.147864
0.153325
0.179235
0.183188
0.179624
0.169762
0.155484
0.138801
0.121401
0.104513
0.0889218
0.0750564
0.0630947
0.0530651
0.0449322
0.0386721
0.0343443
0.0321657
0.0325844
0.036322
0.0443074
0.057396
0.0758578
0.0988089
0.123972
0.147976
0.167271
0.179235
0.200137
0.211503
0.212864
0.205061
0.190186
0.170877
0.149617
0.128362
0.108439
0.090603
0.0751804
0.0622201
0.0516261
0.0432664
0.0370647
0.0330869
0.0316323
0.0333273
0.0391663
0.0503811
0.067993
0.0920878
0.121105
0.151726
0.179446
0.200137
0.211082
0.23233
0.241822
0.239212
0.226228
0.205882
0.181482
0.155916
0.131306
0.108962
0.0895161
0.0731282
0.0596821
0.0489467
0.0406999
0.0348301
0.0314349
0.0309339
0.0341835
0.0425057
0.0574488
0.0801138
0.110189
0.145209
0.180619
0.211082
0.208021
0.240142
0.260475
0.266632
0.259071
0.240522
0.21484
0.185892
0.156829
0.129784
0.105929
0.0856916
0.0690268
0.0556463
0.0451961
0.037385
0.032091
0.0294721
0.0301039
0.0351141
0.0461745
0.0650992
0.0929088
0.128693
0.168913
0.208021
0.189823
0.231214
0.263221
0.280973
0.282686
0.269786
0.245955
0.215751
0.183404
0.152114
0.123865
0.0995854
0.0794538
0.0632159
0.0504328
0.0406577
0.0335609
0.0290366
0.0273289
0.0291943
0.0360469
0.0498788
0.0726547
0.105147
0.14569
0.189823
0.159349
0.205668
0.247243
0.277178
0.290969
0.28769
0.269749
0.241632
0.208346
0.174208
0.142248
0.114159
0.0905655
0.0713975
0.0562221
0.0444912
0.0357056
0.0295296
0.0258984
0.0251593
0.0282567
0.036871
0.0532322
0.0793125
0.115474
0.159349
0.122752
0.168111
0.21432
0.253851
0.279991
0.288967
0.280824
0.258842
0.228029
0.193508
0.159393
0.128357
0.101719
0.0797954
0.0623035
0.0486862
0.038338
0.0307493
0.0256088
0.022912
0.0231156
0.0273382
0.0374684
0.0558553
0.0843132
0.122752
0.0871246
0.126146
0.170771
0.21457
0.250082
0.271228
0.275202
0.262996
0.238509
0.206909
0.173086
0.140715
0.111995
0.08785
0.0683321
0.0530078
0.0412578
0.0324712
0.0261662
0.0220809
0.0202824
0.021332
0.0264861
0.0377528
0.0574499
0.0871246
0.057875
0.0874479
0.1252
0.167011
0.20642
0.236505
0.252148
0.251602
0.236633
0.211416
0.180906
0.149483
0.120229
0.0948322
0.0738652
0.0571795
0.0442624
0.0344917
0.0272951
0.0222484
0.0191565
0.0181625
0.0199148
0.0257517
0.0376862
0.057875
0.0373016
0.0571113
0.0852573
0.120121
0.15742
0.191073
0.215051
0.225384
0.221308
0.205086
0.180813
0.152937
0.125149
0.0998874
0.0783665
0.0608747
0.0471405
0.0366355
0.028782
0.0230786
0.0191792
0.0169649
0.0166501
0.018942
0.0251893
0.0373016
0.0248638
0.0366586
0.055277
0.0809179
0.111654
0.143347
0.170612
0.188533
0.194296
0.187922
0.171865
0.149851
0.125633
0.102157
0.0812491
0.0637224
0.0496634
0.0387452
0.0304731
0.0243471
0.0199568
0.017044
0.0155666
0.015798
0.018467
0.0248638
0.018531
0.024815
0.0358536
0.0526613
0.0750244
0.100908
0.126562
0.147505
0.15999
0.162227
0.154771
0.139991
0.121061
0.100979
0.0819747
0.0653449
0.0515904
0.0406707
0.0322568
0.0259221
0.0212623
0.017966
0.0158631
0.0149807
0.015632
0.018531
0.0161667
0.0191357
0.0250721
0.0350289
0.049596
0.0682734
0.0890928
0.108867
0.124091
0.132105
0.131933
0.124405
0.111623
0.0961317
0.080201
0.0654335
0.0526989
0.042273
0.03405
0.027737
0.0229937
0.0195176
0.017093
0.0156293
0.0152095
0.0161667
0.0162543
0.0173797
0.0202612
0.0256616
0.0342889
0.0463938
0.0613139
0.0772904
0.0917809
0.102217
0.106855
0.105291
0.098431
0.0880033
0.0759339
0.0638496
0.0528387
0.0434454
0.0357979
0.0297724
0.0251351
0.0216379
0.0190747
0.0173148
0.0163332
0.0162543
0.0179725
0.0180813
0.0192269
0.0218725
0.026551
0.0336889
0.0432897
0.0546499
0.0663121
0.076379
0.0830956
0.0854217
0.0833115
0.0775999
0.0696103
0.0607105
0.0519933
0.0441477
0.0374862
0.0320512
0.0277344
0.0243714
0.0218022
0.0199049
0.0186191
0.0179725
0.021005
0.0205058
0.0206326
0.0216446
0.0238698
0.0276599
0.0332253
0.0404247
0.048612
0.0566711
0.0632861
0.0673509
0.0683187
0.0663237
0.0620439
0.0564104
0.0503168
0.0444339
0.0391559
0.0346416
0.0308946
0.0278423
0.0253916
0.0234609
0.0219993
0.021005
0.0253604
0.0244216
0.0238604
0.0238242
0.0244953
0.0261064
0.028868
0.0328519
0.0378654
0.043387
0.0486353
0.0527746
0.0551747
0.0555987
0.0542292
0.0515428
0.0481153
0.0444526
0.0409034
0.0376532
0.0347666
0.0322424
0.0300562
0.0281839
0.0266145
0.0253604
0.0312701
0.0299238
0.0287755
0.0279288
0.0274855
0.0275897
0.0284007
0.0300392
0.0325116
0.0356447
0.0390742
0.0423144
0.0448954
0.0465072
0.0470759
0.0467424
0.0457642
0.0444033
0.0428517
0.0412133
0.039529
0.0378147
0.0360905
0.0343911
0.0327642
0.0312701
0.0391455
0.0373441
0.0355667
0.0339272
0.0325005
0.0313861
0.030702
0.0305654
0.0310553
0.0321693
0.0337979
0.0357365
0.0377398
0.039598
0.0411942
0.0425112
0.0435873
0.0444522
0.0450836
0.0454078
0.0453364
0.0448129
0.0438433
0.0424966
0.0408856
0.0391455
0.049558
0.0472163
0.0446731
0.0421067
0.0396151
0.0372966
0.0352558
0.0336031
0.0324412
0.031843
0.0318323
0.0323818
0.0334318
0.0349228
0.0368201
0.0391084
0.0417517
0.0446384
0.0475508
0.0501851
0.0522218
0.0534134
0.0536489
0.0529676
0.0515281
0.049558
0.0632038
0.0602562
0.0567578
0.0530176
0.0492161
0.0455003
0.0419967
0.0388246
0.0360993
0.033925
0.032387
0.0315514
0.0314755
0.0322266
0.03389
0.0365501
0.0402315
0.0448187
0.0499944
0.0552464
0.0599598
0.0635674
0.0656921
0.0662198
0.0652862
0.0632038
0.0808352
0.0773426
0.0727166
0.0674847
0.0619934
0.0565077
0.0512262
0.0463068
0.041884
0.038077
0.0349934
0.0327356
0.031416
0.0311774
0.032205
0.0347115
0.0388706
0.0447015
0.0519425
0.0599857
0.0679396
0.0748219
0.0798107
0.0824407
0.082673
0.0808352
0.102203
0.0985209
0.0928751
0.0859535
0.0783975
0.0706962
0.0631997
0.0561556
0.0497427
0.0440965
0.039327
0.0355371
0.0328457
0.0314168
0.0314866
0.0333693
0.0374091
0.0438558
0.0526715
0.0633489
0.0748594
0.0858106
0.0947872
0.100714
0.103141
0.102203
0.126758
0.12378
0.117559
0.108975
0.0990647
0.0886753
0.0784276
0.0687436
0.0598961
0.0520564
0.0453332
0.0398075
0.0355679
0.0327517
0.0315876
0.0324291
0.0357478
0.0420396
0.0516115
0.0642844
0.0791558
0.0946014
0.108597
0.119265
0.125397
0.126758

VECTORS u double
-169.548 165.624 0.0
-170.171 165.946 0.0
-170.713 165.986 0.0
-171.244 165.764 0.0
-171.769 165.279 0.0
-172.276 164.546 0.0
-172.738 163.587 0.0
-173.121 162.429 0.0
-173.385 161.098 0.0
-173.49 159.627 0.0
-173.395 158.055 0.0
-173.064 156.436 0.0
-172.465 154.857 0.0
-171.588 153.459 0.0
-170.468 152.45 0.0
-169.228 152.073 0.0
-168.083 152.497 0.0
-167.255 153.684 0.0
-166.856 155.388 0.0
-166.861 157.305 0.0
-167.161 159.195 0.0
-167.634 160.92 0.0
-168.185 162.423 0.0
-168.739 163.67 0.0
-169.253 164.743 0.0
-169.548 165.624 0.0
-170.594 166.335 0.0
-171.204 166.916 0.0
-171.802 166.899 0.0
-172.407 166.652 0.0
-173.002 166.152 0.0
-173.568 165.407 0.0
-174.075 164.435 0.0
-174.491 163.261 0.0
-174.777 161.915 0.0
-174.897 160.425 0.0
-174.811 158.826 0.0
-174.483 157.159 0.0
-173.876 155.488 0.0
-172.959 153.917 0.0
-171.733 152.628 0.0
-170.286 151.879 0.0
-168.835 151.935 0.0
-167.679 152.886 0.0
-167.039 154.541 0.0
-166.941 156.555 0.0
-167.267 158.621 0.0
-167.874 160.561 0.0
-168.629 162.297 0.0
-169.521 163.81 0.0
-170.342 165.117 0.0
-170.594 166.335 0.0
-171.789 166.424 0.0
-172.297 167.269 0.0
-172.851 167.383 0.0
-173.477 167.191 0.0
-174.116 166.721 0.0
-174.73 165.989 0.0
-175.281 165.02 0.0
-175.734 163.842 0.0
-176.051 162.484 0.0
-176.195 160.978 0.0
-176.134 159.356 0.0
-175.832 157.654 0.0
-175.254 155.92 0.0
-174.36 154.228 0.0
-173.124 152.714 0.0
-171.572 151.612 0.0
-169.872 151.235 0.0
-168.352 151.822 0.0
-167.363 153.32 0.0
-167.051 155.389 0.0
-167.335 157.64 0.0
-168.035 159.817 0.0
-169.002 161.807 0.0
-170.124 163.555 0.0
-171.31 165.075 0.0
-171.789 166.424 0.0
-172.522 165.966 0.0
-173.137 166.986 0.0
-173.733 167.344 0.0
-174.391 167.3 0.0
-175.072 166.922 0.0
-175.731 166.249 0.0
-176.328 165.315 0.0
-176.824 164.153 0.0
-177.178 162.799 0.0
-177.357 161.288 0.0
-177.328 159.653 0.0
-177.064 157.929 0.0
-176.532 156.155 0.0
-175.698 154.386 0.0
-174.519 152.716 0.0
-172.975 151.324 0.0
-171.145 150.509 0.0
-169.305 150.619 0.0
-167.892 151.805 0.0
-167.237 153.827 0.0
-167.359 156.226 0.0
-168.074 158.635 0.0
-169.157 160.862 0.0
-170.469 162.822 0.0
-171.795 164.498 0.0
-172.522 165.966 0.0
-172.788 165.002 0.0
-173.601 166.203 0.0
-174.329 166.813 0.0
-175.068 166.971 0.0
-175.811 166.742 0.0
-176.527 166.176 0.0
-177.178 165.315 0.0
-177.724 164.201 0.0
-178.125 162.874 0.0
-178.347 161.374 0.0
-178.361 159.74 0.0
-178.141 158.009 0.0
-177.664 156.215 0.0
-176.902 154.404 0.0
-175.815 152.64 0.0
-174.361 151.045 0.0
-172.539 149.855 0.0
-170.507 149.438 0.0
-168.677 150.135 0.0
-167.55 151.928 0.0
-167.351 154.38 0.0
-167.94 156.984 0.0
-169.046 159.432 0.0
-170.438 161.583 0.0
-171.889 163.411 0.0
-172.788 165.002 0.0
-172.66 163.593 0.0
-173.688 164.977 0.0
-174.589 165.83 0.0
-175.454 166.215 0.0
-176.29 166.177 0.0
-177.081 165.762 0.0
-177.799 165.016 0.0
-178.406 163.985 0.0
-178.865 162.716 0.0
-179.142 161.253 0.0
-179.207 159.641 0.0
-179.039 157.92 0.0
-178.62 156.127 0.0
-177.932 154.302 0.0
-176.944 152.493 0.0
-175.615 150.781 0.0
-173.904 149.324 0.0
-171.85 148.426 0.0
-169.724 148.509 0.0
-168.069 149.834 0.0
-167.365 152.153 0.0
-167.656 154.876 0.0
-168.654 157.525 0.0
-170.057 159.869 0.0
-171.58 161.858 0.0
-172.66 163.593 0.0
-172.152 161.797 0.0
-173.394 163.364 0.0
-174.491 164.446 0.0
-175.513 165.064 0.0
-176.472 165.242 0.0
-177.362 165.015 0.0
-178.164 164.423 0.0
-178.847 163.515 0.0
-179.376 162.339 0.0
-179.719 160.944 0.0
-179.847 159.381 0.0
-179.74 157.693 0.0
-179.385 155.923 0.0
-178.768 154.11 0.0
-177.872 152.295 0.0
-176.667 150.533 0.0
-175.106 148.924 0.0
-173.162 147.673 0.0
-170.938 147.149 0.0
-168.843 147.791 0.0
-167.51 149.696 0.0
-167.294 152.377 0.0
-168.032 155.187 0.0
-169.354 157.732 0.0
-170.914 159.903 0.0
-172.152 161.797 0.0
-171.288 159.679 0.0
-172.729 161.424 0.0
-174.027 162.716 0.0
-175.226 163.562 0.0
-176.333 163.967 0.0
-177.347 163.952 0.0
-178.253 163.55 0.0
-179.028 162.802 0.0
-179.642 161.756 0.0
-180.063 160.466 0.0
-180.267 158.984 0.0
-180.232 157.359 0.0
-179.946 155.637 0.0
-179.401 153.861 0.0
-178.588 152.071 0.0
-177.488 150.31 0.0
-176.068 148.642 0.0
-174.283 147.189 0.0
-172.132 146.203 0.0
-169.813 146.109 0.0
-167.883 147.299 0.0
-166.982 149.649 0.0
-167.26 152.499 0.0
-168.383 155.236 0.0
-169.92 157.611 0.0
-171.288 159.679 0.0
-170.086 157.304 0.0
-171.705 159.223 0.0
-173.199 160.71 0.0
-174.586 161.768 0.0
-175.861 162.397 0.0
-177.019 162.607 0.0
-178.05 162.418 0.0
-178.934 161.862 0.0
-179.648 160.984 0.0
-180.163 159.835 0.0
-180.455 158.469 0.0
-180.504 156.939 0.0
-180.297 155.296 0.0
-179.828 153.585 0.0
-179.091 151.849 0.0
-178.076 150.127 0.0
-176.765 148.466 0.0
-175.122 146.94 0.0
-173.114 145.693 0.0
-170.791 145.018 0.0
-168.479 145.365 0.0
-166.853 147.016 0.0
-166.458 149.627 0.0
-167.209 152.466 0.0
-168.636 155.047 0.0
-170.086 157.304 0.0
-168.561 154.74 0.0
-170.329 156.832 0.0
-172.013 158.497 0.0
-173.592 159.749 0.0
-175.048 160.59 0.0
-176.369 161.023 0.0
-177.543 161.057 0.0
-178.555 160.717 0.0
-179.385 160.037 0.0
-180.008 159.063 0.0
-180.401 157.85 0.0
-180.547 156.45 0.0
-180.43 154.918 0.0
-180.042 153.302 0.0
-179.38 151.648 0.0
-178.437 149.998 0.0
-177.204 148.393 0.0
-175.661 146.882 0.0
-173.78 145.547 0.0
-171.558 144.553 0.0
-169.128 144.216 0.0
-166.958 144.961 0.0
-165.773 146.921 0.0
-165.926 149.595 0.0
-167.097 152.3 0.0
-168.561 154.74 0.0
-166.727 152.094 0.0
-168.603 154.331 0.0
-170.466 156.157 0.0
-172.243 157.58 0.0
-173.891 158.611 0.0
-175.39 159.252 0.0
-176.726 159.508 0.0
-177.884 159.393 0.0
-178.846 158.931 0.0
-179.591 158.161 0.0
-180.1 157.133 0.0
-180.353 155.897 0.0
-180.336 154.509 0.0
-180.038 153.019 0.0
-179.452 151.478 0.0
-178.573 149.93 0.0
-177.397 148.416 0.0
-175.915 146.982 0.0
-174.116 145.679 0.0
-171.995 144.595 0.0
-169.603 143.899 0.0
-167.183 143.895 0.0
-165.319 144.934 0.0
-164.683 147.002 0.0
-165.371 149.564 0.0
-166.727 152.094 0.0
-164.633 149.604 0.0
-166.525 151.862 0.0
-168.55 153.79 0.0
-170.532 155.347 0.0
-172.386 156.535 0.0
-174.08 157.36 0.0
-175.594 157.821 0.0
-176.915 157.925 0.0
-178.025 157.689 0.0
-178.908 157.14 0.0
-179.544 156.32 0.0
-179.917 155.277 0.0
-180.008 154.064 0.0
-179.806 152.732 0.0
-179.3 151.334 0.0
-178.484 149.918 0.0
-177.353 148.53 0.0
-175.907 147.216 0.0
-174.151 146.021 0.0
-172.095 144.999 0.0
-169.776 144.23 0.0
-167.319 143.861 0.0
-165.072 144.139 0.0
-163.667 145.303 0.0
-163.619 147.269 0.0
-164.633 149.604 0.0
-162.478 147.763 0.0
-164.163 149.725 0.0
-166.267 151.583 0.0
-168.446 153.179 0.0
-170.524 154.465 0.0
-172.432 155.427 0.0
-174.144 156.06 0.0
-175.645 156.363 0.0
-176.921 156.343 0.0
-177.955 156.018 0.0
-178.731 155.419 0.0
-179.232 154.589 0.0
-179.44 153.574 0.0
-179.34 152.427 0.0
-178.918 151.201 0.0
-178.164 149.948 0.0
-177.075 148.72 0.0
-175.656 147.565 0.0
-173.923 146.532 0.0
-171.904 145.662 0.0
-169.648 144.997 0.0
-167.243 144.589 0.0
-164.887 144.53 0.0
-162.987 144.974 0.0
-162.126 146.067 0.0
-162.478 147.763 0.0
-160.674 147.208 0.0
-161.793 148.466 0.0
-163.729 149.907 0.0
-166.015 151.319 0.0
-168.305 152.564 0.0
-170.444 153.574 0.0
-172.375 154.317 0.0
-174.076 154.774 0.0
-175.532 154.942 0.0
-176.731 154.825 0.0
-177.658 154.445 0.0
-178.295 153.834 0.0
-178.626 153.034 0.0
-178.633 152.093 0.0
-178.298 151.065 0.0
-177.61 150.004 0.0
-176.565 148.968 0.0
-175.174 148.01 0.0
-173.462 147.182 0.0
-171.476 146.522 0.0
-169.279 146.055 0.0
-166.96 145.791 0.0
-164.651 145.731 0.0
-162.582 145.894 0.0
-161.15 146.346 0.0
-160.674 147.208 0.0
-159.609 148.137 0.0
-159.958 148.628 0.0
-161.332 149.32 0.0
-163.437 150.192 0.0
-165.813 151.13 0.0
-168.151 152.008 0.0
-170.304 152.738 0.0
-172.217 153.267 0.0
-173.868 153.563 0.0
-175.244 153.617 0.0
-176.329 153.433 0.0
-177.11 153.033 0.0
-177.568 152.449 0.0
-177.683 151.726 0.0
-177.438 150.914 0.0
-176.819 150.073 0.0
-175.825 149.26 0.0
-174.47 148.537 0.0
-172.795 147.953 0.0
-170.858 147.543 0.0
-168.741 147.323 0.0
-166.538 147.28 0.0
-164.357 147.378 0.0
-162.339 147.567 0.0
-160.698 147.807 0.0
-159.609 148.137 0.0
-159.297 150.049 0.0
-159.076 150.136 0.0
-159.699 150.168 0.0
-161.225 150.295 0.0
-163.36 150.606 0.0
-165.717 151.064 0.0
-168.018 151.567 0.0
-170.121 152.014 0.0
-171.962 152.333 0.0
-173.516 152.483 0.0
-174.764 152.446 0.0
-175.689 152.226 0.0
-176.274 151.844 0.0
-176.498 151.337 0.0
-176.344 150.754 0.0
-175.798 150.152 0.0
-174.864 149.593 0.0
-173.564 149.137 0.0
-171.95 148.832 0.0
-170.098 148.705 0.0
-168.099 148.756 0.0
-166.053 148.958 0.0
-164.058 149.257 0.0
-162.209 149.582 0.0
-160.621 149.858 0.0
-159.297 150.049 0.0
-159.513 152.323 0.0
-159.075 152.341 0.0
-159.166 152.103 0.0
-159.991 151.708 0.0
-161.529 151.338 0.0
-163.56 151.142 0.0
-165.781 151.146 0.0