# vtk DataFile Version 2.0
Particulate Flow Equations Solution
ASCII
DATASET STRUCTURED_GRID
DIMENSIONS 26 26 1
POINTS 676 double
-10 -10 0
-9.23077 -10 0
-8.46154 -10 0
-7.69231 -10 0
-6.92308 -10 0
-6.15385 -10 0
-5.38462 -10 0
-4.61538 -10 0
-3.84615 -10 0
-3.07692 -10 0
-2.30769 -10 0
-1.53846 -10 0
-0.769231 -10 0
5.55112e-016 -10 0
0.769231 -10 0
1.53846 -10 0
2.30769 -10 0
3.07692 -10 0
3.84615 -10 0
4.61538 -10 0
5.38462 -10 0
6.15385 -10 0
6.92308 -10 0
7.69231 -10 0
8.46154 -10 0
10 -10 0
-10 -9.23077 0
-9.23077 -9.23077 0
-8.46154 -9.23077 0
-7.69231 -9.23077 0
-6.92308 -9.23077 0
-6.15385 -9.23077 0
-5.38462 -9.23077 0
-4.61538 -9.23077 0
-3.84615 -9.23077 0
-3.07692 -9.23077 0
-2.30769 -9.23077 0
-1.53846 -9.23077 0
-0.769231 -9.23077 0
5.55112e-016 -9.23077 0
0.769231 -9.23077 0
1.53846 -9.23077 0
2.30769 -9.23077 0
3.07692 -9.23077 0
3.84615 -9.23077 0
4.61538 -9.23077 0
5.38462 -9.23077 0
6.15385 -9.23077 0
6.92308 -9.23077 0
7.69231 -9.23077 0
8.46154 -9.23077 0
10 -9.23077 0
-10 -8.46154 0
-9.23077 -8.46154 0
-8.46154 -8.46154 0
-7.69231 -8.46154 0
-6.92308 -8.46154 0
-6.15385 -8.46154 0
-5.38462 -8.46154 0
-4.61538 -8.46154 0
-3.84615 -8.46154 0
-3.07692 -8.46154 0
-2.30769 -8.46154 0
-1.53846 -8.46154 0
-0.769231 -8.46154 0
5.55112e-016 -8.46154 0
0.769231 -8.46154 0
1.53846 -8.46154 0
2.30769 -8.46154 0
3.07692 -8.46154 0
3.84615 -8.46154 0
4.61538 -8.46154 0
5.38462 -8.46154 0
6.15385 -8.46154 0
6.92308 -8.46154 0
7.69231 -8.46154 0
8.46154 -8.46154 0
10 -8.46154 0
-10 -7.69231 0
-9.23077 -7.69231 0
-8.46154 -7.69231 0
-7.69231 -7.69231 0
-6.92308 -7.69231 0
-6.15385 -7.69231 0
-5.38462 -7.69231 0
-4.61538 -7.69231 0
-3.84615 -7.69231 0
-3.07692 -7.69231 0
-2.30769 -7.69231 0
-1.53846 -7.69231 0
-0.769231 -7.69231 0
5.55112e-016 -7.69231 0
0.769231 -7.69231 0
1.53846 -7.69231 0
2.30769 -7.69231 0
3.07692 -7.69231 0
3.84615 -7.69231 0
4.61538 -7.69231 0
5.38462 -7.69231 0
6.15385 -7.69231 0
6.92308 -7.69231 0
7.69231 -7.69231 0
8.46154 -7.69231 0
10 -7.69231 0
-10 -6.92308 0
-9.23077 -6.92308 0
-8.46154 -6.92308 0
-7.69231 -6.92308 0
-6.92308 -6.92308 0
-6.15385 -6.92308 0
-5.38462 -6.92308 0
-4.61538 -6.92308 0
-3.84615 -6.92308 0
-3.07692 -6.92308 0
-2.30769 -6.92308 0
-1.53846 -6.92308 0
-0.769231 -6.92308 0
5.55112e-016 -6.92308 0
0.769231 -6.92308 0
1.53846 -6.92308 0
2.30769 -6.92308 0
3.07692 -6.92308 0
3.84615 -6.92308 0
4.61538 -6.92308 0
5.38462 -6.92308 0
6.15385 -6.92308 0
6.92308 -6.92308 0
7.69231 -6.92308 0
8.46154 -6.92308 0
10 -6.92308 0
-10 -6.15385 0
-9.23077 -6.15385 0
-8.46154 -6.15385 0
-7.69231 -6.15385 0
-6.92308 -6.15385 0
-6.15385 -6.15385 0
-5.38462 -6.15385 0
-4.61538 -6.15385 0
-3.84615 -6.15385 0
-3.07692 -6.15385 0
-2.30769 -6.15385 0
-1.53846 -6.15385 0
-0.769231 -6.15385 0
5.55112e-016 -6.15385 0
0.769231 -6.15385 0
1.53846 -6.15385 0
2.30769 -6.15385 0
3.07692 -6.15385 0
3.84615 -6.15385 0
4.61538 -6.15385 0
5.38462 -6.15385 0
6.15385 -6.15385 0
6.92308 -6.15385 0
7.69231 -6.15385 0
8.46154 -6.15385 0
10 -6.15385 0
-10 -5.38462 0
-9.23077 -5.38462 0
-8.46154 -5.38462 0
-7.69231 -5.38462 0
-6.92308 -5.38462 0
-6.15385 -5.38462 0
-5.38462 -5.38462 0
-4.61538 -5.38462 0
-3.84615 -5.38462 0
-3.07692 -5.38462 0
-2.30769 -5.38462 0
-1.53846 -5.38462 0
-0.769231 -5.38462 0
5.55112e-016 -5.38462 0
0.769231 -5.38462 0
1.53846 -5.38462 0
2.30769 -5.38462 0
3.07692 -5.38462 0
3.84615 -5.38462 0
4.61538 -5.38462 0
5.38462 -5.38462 0
6.15385 -5.38462 0
6.92308 -5.38462 0
7.69231 -5.38462 0
8.46154 -5.38462 0
10 -5.38462 0
-10 -4.61538 0
-9.23077 -4.61538 0
-8.46154 -4.61538 0
-7.69231 -4.61538 0
-6.92308 -4.61538 0
-6.15385 -4.61538 0
-5.38462 -4.61538 0
-4.61538 -4.61538 0
-3.84615 -4.61538 0
-3.07692 -4.61538 0
-2.30769 -4.61538 0
-1.53846 -4.61538 0
-0.769231 -4.61538 0
5.55112e-016 -4.61538 0
0.769231 -4.61538 0
1.53846 -4.61538 0
2.30769 -4.61538 0
3.07692 -4.61538 0
3.84615 -4.61538 0
4.61538 -4.61538 0
5.38462 -4.61538 0
6.15385 -4.61538 0
6.92308 -4.61538 0
7.69231 -4.61538 0
8.46154 -4.61538 0
10 -4.61538 0
-10 -3.84615 0
-9.23077 -3.84615 0
-8.46154 -3.84615 0
-7.69231 -3.84615 0
-6.92308 -3.84615 0
-6.15385 -3.84615 0
-5.38462 -3.84615 0
-4.61538 -3.84615 0
-3.84615 -3.84615 0
-3.07692 -3.84615 0
-2.30769 -3.84615 0
-1.53846 -3.84615 0
-0.769231 -3.84615 0
5.55112e-016 -3.84615 0
0.769231 -3.84615 0
1.53846 -3.84615 0
2.30769 -3.84615 0
3.07692 -3.84615 0
3.84615 -3.84615 0
4.61538 -3.84615 0
5.38462 -3.84615 0
6.15385 -3.84615 0
6.92308 -3.84615 0
7.69231 -3.84615 0
8.46154 -3.84615 0
10 -3.84615 0
-10 -3.07692 0
-9.23077 -3.07692 0
-8.46154 -3.07692 0
-7.69231 -3.07692 0
-6.92308 -3.07692 0
-6.15385 -3.07692 0
-5.38462 -3.07692 0
-4.61538 -3.07692 0
-3.84615 -3.07692 0
-3.07692 -3.07692 0
-2.30769 -3.07692 0
-1.53846 -3.07692 0
-0.769231 -3.07692 0
5.55112e-016 -3.07692 0
0.769231 -3.07692 0
1.53846 -3.07692 0
2.30769 -3.07692 0
3.07692 -3.07692 0
3.84615 -3.07692 0
4.61538 -3.07692 0
5.38462 -3.07692 0
6.15385 -3.07692 0
6.92308 -3.07692 0
7.69231 -3.07692 0
8.46154 -3.07692 0
10 -3.07692 0
-10 -2.30769 0
-9.23077 -2.30769 0
-8.46154 -2.30769 0
-7.69231 -2.30769 0
-6.92308 -2.30769 0
-6.15385 -2.30769 0
-5.38462 -2.30769 0
-4.61538 -2.30769 0
-3.84615 -2.30769 0
-3.07692 -2.30769 0
-2.30769 -2.30769 0
-1.53846 -2.30769 0
-0.769231 -2.30769 0
5.55112e-016 -2.30769 0
0.769231 -2.30769 0
1.53846 -2.30769 0
2.30769 -2.30769 0
3.07692 -2.30769 0
3.84615 -2.30769 0
4.61538 -2.30769 0
5.38462 -2.30769 0
6.15385 -2.30769 0
6.92308 -2.30769 0
7.69231 -2.30769 0
8.46154 -2.30769 0
10 -2.30769 0
-10 -1.53846 0
-9.23077 -1.53846 0
-8.46154 -1.53846 0
-7.69231 -1.53846 0
-6.92308 -1.53846 0
-6.15385 -1.53846 0
-5.38462 -1.53846 0
-4.61538 -1.53846 0
-3.84615 -1.53846 0
-3.07692 -1.53846 0
-2.30769 -1.53846 0
-1.53846 -1.53846 0
-0.769231 -1.53846 0
5.55112e-016 -1.53846 0
0.769231 -1.53846 0
1.53846 -1.53846 0
2.30769 -1.53846 0
3.07692 -1.53846 0
3.84615 -1.53846 0
4.61538 -1.53846 0
5.38462 -1.53846 0
6.15385 -1.53846 0
6.92308 -1.53846 0
7.69231 -1.53846 0
8.46154 -1.53846 0
10 -1.53846 0
-10 -0.769231 0
-9.23077 -0.769231 0
-8.46154 -0.769231 0
-7.69231 -0.769231 0
-6.92308 -0.769231 0
-6.15385 -0.769231 0
-5.38462 -0.769231 0
-4.61538 -0.769231 0
-3.84615 -0.769231 0
-3.07692 -0.769231 0
-2.30769 -0.769231 0
-1.53846 -0.769231 0
-0.769231 -0.769231 0
5.55112e-016 -0.769231 0
0.769231 -0.769231 0
1.53846 -0.769231 0
2.30769 -0.769231 0
3.07692 -0.769231 0
3.84615 -0.769231 0
4.61538 -0.769231 0
5.38462 -0.769231 0
6.15385 -0.769231 0
6.92308 -0.769231 0
7.69231 -0.769231 0
8.46154 -0.769231 0
10 -0.769231 0
-10 5.55112e-016 0
-9.23077 5.55112e-016 0
-8.46154 5.55112e-016 0
-7.69231 5.55112e-016 0
-6.92308 5.55112e-016 0
-6.15385 5.55112e-016 0
-5.38462 5.55112e-016 0
-4.61538 5.55112e-016 0
-3.84615 5.55112e-016 0
-3.07692 5.55112e-016 0
-2.30769 5.55112e-016 0
-1.53846 5.55112e-016 0
-0.769231 5.55112e-016 0
5.55112e-016 5.55112e-016 0
0.769231 5.55112e-016 0
1.53846 5.55112e-016 0
2.30769 5.55112e-016 0
3.07692 5.55112e-016 0
3.84615 5.55112e-016 0
4.61538 5.55112e-016 0
5.38462 5.55112e-016 0
6.15385 5.55112e-016 0
6.92308 5.55112e-016 0
7.69231 5.55112e-016 0
8.46154 5.55112e-016 0
10 5.55112e-016 0
-10 0.769231 0
-9.23077 0.769231 0
-8.46154 0.769231 0
-7.69231 0.769231 0
-6.92308 0.769231 0
-6.15385 0.769231 0
-5.38462 0.769231 0
-4.61538 0.769231 0
-3.84615 0.769231 0
-3.07692 0.769231 0
-2.30769 0.769231 0
-1.53846 0.769231 0
-0.769231 0.769231 0
5.55112e-016 0.769231 0
0.769231 0.769231 0
1.53846 0.769231 0
2.30769 0.769231 0
3.07692 0.769231 0
3.84615 0.769231 0
4.61538 0.769231 0
5.38462 0.769231 0
6.15385 0.769231 0
6.92308 0.769231 0
7.69231 0.769231 0
8.46154 0.769231 0
10 0.769231 0
-10 1.53846 0
-9.23077 1.53846 0
-8.46154 1.53846 0
-7.69231 1.53846 0
-6.92308 1.53846 0
-6.15385 1.53846 0
-5.38462 1.53846 0
-4.61538 1.53846 0
-3.84615 1.53846 0
-3.07692 1.53846 0
-2.30769 1.53846 0
-1.53846 1.53846 0
-0.769231 1.53846 0
5.55112e-016 1.53846 0
0.769231 1.53846 0
1.53846 1.53846 0
2.30769 1.53846 0
3.07692 1.53846 0
3.84615 1.53846 0
4.61538 1.53846 0
5.38462 1.53846 0
6.15385 1.53846 0
6.92308 1.53846 0
7.69231 1.53846 0
8.46154 1.53846 0
10 1.53846 0
-10 2.30769 0
-9.23077 2.30769 0
-8.46154 2.30769 0
-7.69231 2.30769 0
-6.92308 2.30769 0
-6.15385 2.30769 0
-5.38462 2.30769 0
-4.61538 2.30769 0
-3.84615 2.30769 0
-3.07692 2.30769 0
-2.30769 2.30769 0
-1.53846 2.30769 0
-0.769231 2.30769 0
5.55112e-016 2.30769 0
0.769231 2.30769 0
1.53846 2.30769 0
2.30769 2.30769 0
3.07692 2.30769 0
3.84615 2.30769 0
4.61538 2.30769 0
5.38462 2.30769 0
6.15385 2.30769 0
6.92308 2.30769 0
7.69231 2.30769 0
8.46154 2.30769 0
10 2.30769 0
-10 3.07692 0
-9.23077 3.07692 0
-8.46154 3.07692 0
-7.69231 3.07692 0
-6.92308 3.07692 0
-6.15385 3.07692 0
-5.38462 3.07692 0
-4.61538 3.07692 0
-3.84615 3.07692 0
-3.07692 3.07692 0
-2.30769 3.07692 0
-1.53846 3.07692 0
-0.769231 3.07692 0
5.55112e-016 3.07692 0
0.769231 3.07692 0
1.53846 3.07692 0
2.30769 3.07692 0
3.07692 3.07692 0
3.84615 3.07692 0
4.61538 3.07692 0
5.38462 3.07692 0
6.15385 3.07692 0
6.92308 3.07692 0
7.69231 3.07692 0
8.46154 3.07692 0
10 3.07692 0
-10 3.84615 0
-9.23077 3.84615 0
-8.46154 3.84615 0
-7.69231 3.84615 0
-6.92308 3.84615 0
-6.15385 3.84615 0
-5.38462 3.84615 0
-4.61538 3.84615 0
-3.84615 3.84615 0
-3.07692 3.84615 0
-2.30769 3.84615 0
-1.53846 3.84615 0
-0.769231 3.84615 0
5.55112e-016 3.84615 0
0.769231 3.84615 0
1.53846 3.84615 0
2.30769 3.84615 0
3.07692 3.84615 0
3.84615 3.84615 0
4.61538 3.84615 0
5.38462 3.84615 0
6.15385 3.84615 0
6.92308 3.84615 0
7.69231 3.84615 0
8.46154 3.84615 0
10 3.84615 0
-10 4.61538 0
-9.23077 4.61538 0
-8.46154 4.61538 0
-7.69231 4.61538 0
-6.92308 4.61538 0
-6.15385 4.61538 0
-5.38462 4.61538 0
-4.61538 4.61538 0
-3.84615 4.61538 0
-3.07692 4.61538 0
-2.30769 4.61538 0
-1.53846 4.61538 0
-0.769231 4.61538 0
5.55112e-016 4.61538 0
0.769231 4.61538 0
1.53846 4.61538 0
2.30769 4.61538 0
3.07692 4.61538 0
3.84615 4.61538 0
4.61538 4.61538 0
5.38462 4.61538 0
6.15385 4.61538 0
6.92308 4.61538 0
7.69231 4.61538 0
8.46154 4.61538 0
10 4.61538 0
-10 5.38462 0
-9.23077 5.38462 0
-8.46154 5.38462 0
-7.69231 5.38462 0
-6.92308 5.38462 0
-6.15385 5.38462 0
-5.38462 5.38462 0
-4.61538 5.38462 0
-3.84615 5.38462 0
-3.07692 5.38462 0
-2.30769 5.38462 0
-1.53846 5.38462 0
-0.769231 5.38462 0
5.55112e-016 5.38462 0
0.769231 5.38462 0
1.53846 5.38462 0
2.30769 5.38462 0
3.07692 5.38462 0
3.84615 5.38462 0
4.61538 5.38462 0
5.38462 5.38462 0
6.15385 5.38462 0
6.92308 5.38462 0
7.69231 5.38462 0
8.46154 5.38462 0
10 5.38462 0
-10 6.15385 0
-9.23077 6.15385 0
-8.46154 6.15385 0
-7.69231 6.15385 0
-6.92308 6.15385 0
-6.15385 6.15385 0
-5.38462 6.15385 0
-4.61538 6.15385 0
-3.84615 6.15385 0
-3.07692 6.15385 0
-2.30769 6.15385 0
-1.53846 6.15385 0
-0.769231 6.15385 0
5.55112e-016 6.15385 0
0.769231 6.15385 0
1.53846 6.15385 0
2.30769 6.15385 0
3.07692 6.15385 0
3.84615 6.15385 0
4.61538 6.15385 0
5.38462 6.15385 0
6.15385 6.15385 0
6.92308 6.15385 0
7.69231 6.15385 0
8.46154 6.15385 0
10 6.15385 0
-10 6.92308 0
-9.23077 6.92308 0
-8.46154 6.92308 0
-7.69231 6.92308 0
-6.92308 6.92308 0
-6.15385 6.92308 0
-5.38462 6.92308 0
-4.61538 6.92308 0
-3.84615 6.92308 0
-3.07692 6.92308 0
-2.30769 6.92308 0
-1.53846 6.92308 0
-0.769231 6.92308 0
5.55112e-016 6.92308 0
0.769231 6.92308 0
1.53846 6.92308 0
2.30769 6.92308 0
3.07692 6.92308 0
3.84615 6.92308 0
4.61538 6.92308 0
5.38462 6.92308 0
6.15385 6.92308 0
6.92308 6.92308 0
7.69231 6.92308 0
8.46154 6.92308 0
10 6.92308 0
-10 7.69231 0
-9.23077 7.69231 0
-8.46154 7.69231 0
-7.69231 7.69231 0
-6.92308 7.69231 0
-6.15385 7.69231 0
-5.38462 7.69231 0
-4.61538 7.69231 0
-3.84615 7.69231 0
-3.07692 7.69231 0
-2.30769 7.69231 0
-1.53846 7.69231 0
-0.769231 7.69231 0
5.55112e-016 7.69231 0
0.769231 7.69231 0
1.53846 7.69231 0
2.30769 7.69231 0
3.07692 7.69231 0
3.84615 7.69231 0
4.61538 7.69231 0
5.38462 7.69231 0
6.15385 7.69231 0
6.92308 7.69231 0
7.69231 7.69231 0
8.46154 7.69231 0
10 7.69231 0
-10 8.46154 0
-9.23077 8.46154 0
-8.46154 8.46154 0
-7.69231 8.46154 0
-6.92308 8.46154 0
-6.15385 8.46154 0
-5.38462 8.46154 0
-4.61538 8.46154 0
-3.84615 8.46154 0
-3.07692 8.46154 0
-2.30769 8.46154 0
-1.53846 8.46154 0
-0.769231 8.46154 0
5.55112e-016 8.46154 0
0.769231 8.46154 0
1.53846 8.46154 0
2.30769 8.46154 0
3.07692 8.46154 0
3.84615 8.46154 0
4.61538 8.46154 0
5.38462 8.46154 0
6.15385 8.46154 0
6.92308 8.46154 0
7.69231 8.46154 0
8.46154 8.46154 0
10 8.46154 0
-10 10 0
-9.23077 10 0
-8.46154 10 0
-7.69231 10 0
-6.92308 10 0
-6.15385 10 0
-5.38462 10 0
-4.61538 10 0
-3.84615 10 0
-3.07692 10 0
-2.30769 10 0
-1.53846 10 0
-0.769231 10 0
5.55112e-016 10 0
0.769231 10 0
1.53846 10 0
2.30769 10 0
3.07692 10 0
3.84615 10 0
4.61538 10 0
5.38462 10 0
6.15385 10 0
6.92308 10 0
7.69231 10 0
8.46154 10 0
10 10 0

POINT_DATA 676
SCALARS h double 1
LOOkUP_TABLE default
0.000134156
0.000884206
0.00372881
0.00961263
0.0140536
0.0107892
0.0040612
0.00159684
0.0031729
0.00323957
0.00244461
0.00166891
0.00164101
0.00320854
0.00637882
0.00870974
0.00832748
0.00577697
0.00258892
0.000416219
1.10454e-005
3.43565e-006
1.98305e-006
3.96035e-006
1.34182e-005
0.000134156
4.06118e-006
3.34611e-005
0.000176196
0.000548763
0.000949956
0.000888612
0.000731164
0.00180019
0.0031479
0.00288999
0.00184799
0.00110011
0.00118427
0.00289333
0.00696745
0.010815
0.0108083
0.00732781
0.00315164
0.000503351
2.38839e-005
1.90787e-006
9.33373e-006
1.11519e-005
2.94739e-006
4.06118e-006
1.96798e-006
5.84857e-006
1.27719e-005
3.00799e-005
5.69938e-005
9.83025e-005
0.000355469
0.00149398
0.00354188
0.00285023
0.0013792
0.000566549
0.000579122
0.00230378
0.00795051
0.0152082
0.0166255
0.0110709
0.00443696
0.000772005
8.34604e-005
2.10961e-006
1.24032e-005
1.77678e-005
4.54082e-006
1.96798e-006
4.9143e-006
8.33424e-006
1.18433e-005
1.55769e-005
2.16724e-005
0.000110866
0.000511536
0.00173156
0.00364105
0.00273923
0.00108066
0.00032686
0.000216971
0.00134316
0.00690059
0.0166855
0.0214923
0.0156033
0.00629777
0.00112265
0.000146543
1.26013e-005
1.99768e-005
3.75353e-005
1.14828e-005
4.9143e-006
4.80507e-005
2.6831e-005
1.39783e-005
1.57024e-005
1.3275e-005
4.26965e-005
0.000244566
0.000846649
0.00182625
0.00183564
0.000683054
0.000183375
0.000159383
0.000878022
0.00389704
0.00997916
0.0160595
0.0150348
0.00707886
0.00104938
8.6809e-005
7.7184e-006
4.57651e-005
8.8093e-005
7.74737e-005
4.80507e-005
0.000358142
0.000296026
0.00017854
8.78144e-005
4.26593e-005
2.31039e-005
4.19385e-005
0.000169594
0.00045769
0.000682143
0.000338533
0.000102974
0.000306446
0.00184338
0.00644273
0.0146743
0.0212897
0.0188471
0.00808753
0.000299823
5.5649e-005
3.93481e-005
0.000128294
0.000239522
0.000344424
0.000358142
0.000928566
0.00078673
0.000655073
0.000324004
9.71696e-005
0.000110014
6.36322e-005
1.22566e-005
5.77873e-005
0.000121258
8.59301e-005
3.40925e-005
0.000119712
0.000464998
0.00228697
0.00701216
0.0129721
0.0141253
0.00741418
0.000160782
2.88874e-005
7.18518e-006
7.82432e-005
0.000455879
0.00114252
0.000928566
0.00686604
0.00526224
0.00101286
0.000321816
0.000357718
0.000519882
0.000374837
7.16365e-005
9.11482e-005
0.0001587
0.000256682
0.000414124
0.000703746
0.00117858
0.00298714
0.00789518
0.0154696
0.0196959
0.0140686
0.00239737
0.0003534
4.8625e-005
4.17961e-005
0.000375217
0.00139406
0.00686604
0.030736
0.0116614
0.00104053
0.000772184
0.00154355
0.00218744
0.00166719
0.000660832
0.000601549
0.000879228
0.00137227
0.00215418
0.00333884
0.00485233
0.00688889
0.0108969
0.017199
0.0202373
0.0144645
0.00340748
0.000161709
0.000370646
0.000268314
0.00641145
0.0233039
0.030736
0.0408589
0.0122169
0.000112808
0.00133981
0.00402711
0.00645188
0.00486259
0.00208044
0.00174985
0.00249116
0.00387633
0.00615832
0.00957741
0.0131065
0.0141591
0.0126636
0.0111021
0.00767238
0.00333994
0.0011858
0.000542226
0.000732363
0.000327138
0.0112976
0.0404502
0.0408589
0.037136
0.00980373
0.00032623
0.00279596
0.00906679
0.0155403
0.0109746
0.00460731
0.00346953
0.00473855
0.00730781
0.0118813
0.0191907
0.0265276
0.0263389
0.0174785
0.00868384
0.00278683
0.000319823
0.000241447
0.00019714
0.000180474
0.00129653
0.0133647
0.044152
0.037136
0.0289455
0.00874127
0.00240964
0.00725581
0.0201257
0.0321311
0.0210809
0.00852849
0.00554735
0.00685795
0.0101477
0.0169249
0.0293438
0.0432202
0.0432176
0.0262871
0.0101208
0.00237171
0.000239855
1.28349e-005
1.57189e-005
0.000117823
0.00115983
0.0114884
0.0373511
0.0289455
0.0219774
0.0104145
0.0078032
0.0174728
0.0413085
0.0577952
0.0358579
0.0142428
0.00800612
0.00823619
0.0108787
0.0182761
0.0353769
0.059211
0.0637626
0.0392996
0.0145665
0.0035363
0.000602355
5.70743e-005
1.37215e-005
0.000127719
0.000918454
0.00804293
0.0259178
0.0219774
0.0175843
0.0138766
0.016284
0.0337227
0.0724381
0.090505
0.0545065
0.0219862
0.0111492
0.0089296
0.00941341
0.0150903
0.0341838
0.0699384
0.0853939
0.055878
0.0216154
0.00577948
0.001194
0.000158498
5.80338e-006
7.79355e-005
0.000587091
0.00489177
0.016433
0.0175843
0.0145629
0.0168482
0.0247821
0.0513699
0.105053
0.122683
0.0743995
0.0317476
0.0153069
0.00952584
0.00713822
0.00945941
0.0257706
0.0727673
0.102833
0.0729605
0.0301567
0.00881703
0.00205016
0.000324996
1.09165e-005
0.000102866
0.000326676
0.00291608
0.0103518
0.0145629
0.0118814
0.0179441
0.0301395
0.0642587
0.131187
0.152132
0.0971322
0.0440767
0.0203668
0.010175
0.0048822
0.00350782
0.0150773
0.0630749
0.108528
0.0842366
0.0373786
0.0117697
0.00297558
0.00053438
1.83663e-005
9.76718e-005
0.00020439
0.001783
0.00660885
0.0118814
0.0110677
0.0201467
0.0332159
0.0719053
0.138561
0.152515
0.103424
0.0551996
0.0266338
0.0122026
0.00511826
0.00200029
0.0110809
0.0502419
0.0999508
0.0850406
0.0408701
0.0139768
0.00389099
0.000790181
5.99518e-005
3.30076e-005
0.000148112
0.00112585
0.00473879
0.0110677
0.0210642
0.0344966
0.0225062
0.00888696
0.0319972
0.115966
0.105788
0.0680674
0.0394554
0.0278996
0.0318443
0.0477647
0.0683887
0.0916019
0.115059
0.095572
0.0514078
0.020959
0.00702872
0.00166988
0.000164128
3.86366e-006
0.000156436
0.00165748
0.00788617
0.0210642
0.0928447
0.192068
0.29572
0.334323
0.297026
0.239248
0.156938
0.0995061
0.0736658
0.0860465
0.152572
0.265901
0.344934
0.325066
0.258407
0.17729
0.100428
0.0473873
0.017968
0.00445873
0.000174346
0.000145198
0.000775855
0.00697728
0.0316192
0.0928447
0.438981
1.03581
1.64401
1.77825
1.36738
0.804135
0.39505
0.192663
0.127024
0.164474
0.361311
0.733609
0.976822
0.856621
0.589899
0.360627
0.200822
0.097909
0.0376214
0.00888654
0.000195803
0.000516907
0.0024451
0.0236161
0.124616
0.438981
1.01252
2.49508
4.1099
4.53133
3.45056
1.92847
0.853476
0.330414
0.133584
0.0989334
0.257874
0.746099
1.05276
0.92791
0.629726
0.375387
0.203951
0.0960868
0.0345437
0.00718899
8.09147e-005
0.000670537
0.00622618
0.0517458
0.277746
1.01252
0.885137
2.53192
4.78498
5.86921
4.76415
2.69861
1.13111
0.362696
0.0821802
0.0145325
0.0565333
0.1805
0.263706
0.237374
0.164256
0.0999117
0.054877
0.0258018
0.00914358
0.00185556
1.04894e-005
0.000424506
0.00452551
0.0363974
0.212542
0.885137
0.266127
0.953993
2.23729
3.29763
3.03442
1.79806
0.70638
0.175165
0.0164368
0.00140448
0.00465373
0.014542
0.0186072
0.0116629
0.00284904
0.00585798
0.00714454
0.00511553
0.00253564
0.000735931
9.44217e-005
5.78832e-005
0.000729816
0.00708197
0.0511703
0.266127
0.0354039
0.157697
0.460183
0.829628
0.887581
0.559703
0.204238
0.036252
0.0125541
0.000531086
0.00113029
0.000802184
0.000740253
0.00346387
0.0125611
0.0182247
0.0173925
0.0117433
0.00575279
0.00150454
0.000109918
6.54373e-006
4.72712e-005
0.000591119
0.00548
0.0354039
0.00274464
0.0147402
0.0519215
0.112665
0.140947
0.0968229
0.0336837
0.0032273
0.00113712
0.00371791
0.00297513
0.00226796
0.0023986
0.00463593
0.00823941
0.0105
0.00927981
0.0060198
0.00262641
0.00045355
1.53651e-005
3.39575e-006
1.11368e-006
2.73018e-005
0.00034584
0.00274464
0.000134156
0.000884206
0.00372881
0.00961263
0.0140536
0.0107892
0.0040612
0.00159684
0.0031729
0.00323957
0.00244461
0.00166891
0.00164101
0.00320854
0.00637882
0.00870974
0.00832748
0.00577697
0.00258892
0.000416219
1.10454e-005
3.43565e-006
1.98305e-006
3.96035e-006
1.34182e-005
0.000134156

VECTORS u double
-40.7013 6.61498 0.0
-43.2737 7.54036 0.0
-46.806 8.46879 0.0
-51.6477 9.25269 0.0
-56.8695 9.56382 0.0
-59.9566 8.84629 0.0
-53.8651 5.49711 0.0
-14.0677 -6.4202 0.0
-25.9182 -5.07823 0.0
-25.598 -6.79775 0.0
-24.1133 -5.79405 0.0
-19.141 -0.870425 0.0
-12.4898 6.58852 0.0
-12.2585 8.65088 0.0
-14.2786 9.16934 0.0
-15.738 9.75458 0.0
-16.3744 10.0851 0.0
-16.0953 10.023 0.0
-15.3565 9.32536 0.0
-14.454 6.31674 0.0
-12.1408 6.4431 0.0
-8.32231 8.44825 0.0
2.688 10.6923 0.0
-8.49766 8.47062 0.0
-36.4998 5.86471 0.0
-40.7013 6.61498 0.0
-19.5187 6.7238 0.0
-32.8282 7.40732 0.0
-40.8819 8.09676 0.0
-46.0144 8.61802 0.0
-49.5556 8.61944 0.0
-46.5247 6.9729 0.0
-21.299 0.061469 0.0
-17.2212 -3.91036 0.0
-20.4044 -6.53894 0.0
-23.2877 -8.74485 0.0
-24.1523 -8.7454 0.0
-19.9246 -2.85973 0.0
-11.7828 9.15203 0.0
-11.2376 12.8502 0.0
-13.1746 13.547 0.0
-14.5572 14.5076 0.0
-15.2159 15.378 0.0
-15.0333 15.6547 0.0
-14.3637 14.8995 0.0
-13.83 11.3058 0.0
-12.9399 11.9959 0.0
10.4421 -1.10086 0.0
0.617244 7.02344 0.0
-4.6951 7.61214 0.0
-8.58148 7.47634 0.0
-19.5187 6.7238 0.0
10.5206 7.20286 0.0
13.3027 7.57703 0.0
2.76876 7.85458 0.0
-15.0783 8.08118 0.0
-23.7367 7.74089 0.0
-7.2792 4.43561 0.0
1.7405 0.359068 0.0
-3.70334 -2.04941 0.0
-8.73636 -4.9646 0.0
-14.4459 -8.19605 0.0
-19.3075 -10.6363 0.0
-19.5187 -7.22725 0.0
-9.25389 10.0405 0.0
-9.07373 13.376 0.0
-11.275 13.2772 0.0
-13.086 14.3227 0.0
-14.1371 16.1059 0.0
-14.2869 17.7649 0.0
-13.7659 17.9894 0.0
-13.5642 13.3549 0.0
-13.4726 10.3939 0.0
13.0926 1.21302 0.0
0.973233 6.63026 0.0
-4.85074 7.49683 0.0
-7.62673 7.59219 0.0
10.5206 7.20286 0.0
9.83244 7.31329 0.0
16.5343 7.98171 0.0
20.1331 8.23135 0.0
21.5722 8.44681 0.0
19.2156 3.2274 0.0
13.4531 -1.41136 0.0
6.29831 -2.86065 0.0
0.833504 -4.10112 0.0
-3.05953 -5.87494 0.0
-6.49353 -7.82318 0.0
-10.9718 -10.8421 0.0
-14.9617 -11.6292 0.0
-7.0101 4.65231 0.0
-6.13955 9.08149 0.0
-9.47608 8.27628 0.0
-11.9694 9.89623 0.0
-13.3828 12.625 0.0
-13.8512 15.5764 0.0
-13.5466 17.0741 0.0
-13.5056 10.8805 0.0
-13.2522 6.10431 0.0
-5.95128 5.53595 0.0
5.04642 7.68407 0.0
-1.14695 7.85186 0.0
-2.10323 7.41724 0.0
9.83244 7.31329 0.0
14.4647 5.5663 0.0
17.0305 6.28554 0.0
20.0504 6.71027 0.0
24.2371 8.81758 0.0
21.1246 13.1336 0.0
16.1932 -8.90492 0.0
9.19904 -7.91434 0.0
3.97397 -7.86287 0.0
0.382303 -8.88748 0.0
-1.9109 -9.74807 0.0
-4.5509 -12.3677 0.0
-8.2846 -13.3818 0.0
-7.39589 -3.89997 0.0
-7.38957 0.365111 0.0
-10.0307 1.45282 0.0
-11.9415 4.10169 0.0
-13.1122 7.48653 0.0
-13.6405 10.9169 0.0
-13.5236 13.0126 0.0
-13.2544 5.15977 0.0
-12.5609 -1.38824 0.0
11.6288 2.34547 0.0
11.2008 3.88508 0.0
9.64316 5.11282 0.0
9.98856 5.29629 0.0
14.4647 5.5663 0.0
21.1703 3.60007 0.0
22.9926 4.66675 0.0
23.0085 5.52118 0.0
22.3263 5.63424 0.0
19.1491 12.3894 0.0
10.413 22.3707 0.0
14.4185 -14.4116 0.0
7.57263 -11.5817 0.0
4.50068 -12.6355 0.0
2.13534 -13.8436 0.0
-0.707914 -16.3076 0.0
-4.97705 -14.1891 0.0
-10.1883 -3.64592 0.0
-11.6307 -0.0283348 0.0
-12.8818 2.1048 0.0
-13.768 3.71505 0.0
-14.3167 5.2552 0.0
-14.4437 6.86941 0.0
-14.1937 8.27211 0.0
-12.8177 -6.99735 0.0
-14.8989 -6.57463 0.0
14.9524 -3.1277 0.0
15.5717 -0.172719 0.0
16.911 1.62468 0.0
17.1598 2.61913 0.0
21.1703 3.60007 0.0
32.0404 0.0202652 0.0
42.8477 -0.308296 0.0
38.6865 0.63328 0.0
35.6323 -0.762818 0.0
33.2948 -2.98643 0.0
8.12805 23.956 0.0
-2.5223 25.891 0.0
17.1391 11.2897 0.0
11.9586 -17.4783 0.0
7.87919 -20.4539 0.0
4.70352 -23.092 0.0
0.103385 -21.7647 0.0
-9.39105 -0.450708 0.0
-9.90317 -10.629 0.0
-11.4614 -5.42431 0.0
-12.5893 -2.6599 0.0
-13.3665 -0.582871 0.0
-13.9751 1.84323 0.0
-14.3844 4.67645 0.0
-14.6933 -5.99834 0.0
-18.3655 -7.89817 0.0
17.419 -12.6813 0.0
25.1309 -3.09793 0.0
23.832 -1.21845 0.0
19.5536 -0.276466 0.0
32.0404 0.0202652 0.0
4.64029 5.47516 0.0
1.13762 8.96256 0.0
6.76816 12.5726 0.0
10.645 14.7515 0.0
11.8687 21.1435 0.0
5.67002 25.5848 0.0
-2.10727 27.6083 0.0
-4.99748 20.2748 0.0
-18.8143 21.2322 0.0
-19.6223 23.6531 0.0
-16.5122 24.3948 0.0
-13.2238 23.5662 0.0
-11.4615 21.226 0.0
-12.0573 16.2512 0.0
-13.9969 10.5841 0.0
-15.1047 8.71196 0.0
-15.2729 7.85154 0.0
-14.9604 7.01416 0.0
-14.3878 5.94022 0.0
-14.7946 6.65492 0.0
-19.8671 7.46818 0.0
-19.2487 12.4419 0.0
23.2895 -5.22465 0.0
20.552 -9.03924 0.0
12.5291 -7.81982 0.0
4.64029 5.47516 0.0
-1.68315 8.19058 0.0
-2.61515 8.57016 0.0
4.9167 14.1683 0.0
11.8909 19.5775 0.0
10.6031 23.6636 0.0
3.44943 26.9748 0.0
-5.52482 29.7782 0.0
-14.458 29.7492 0.0
-22.2862 27.6547 0.0
-20.91 26.5175 0.0
-17.0203 25.8865 0.0
-13.6646 25.32 0.0
-11.8776 24.6057 0.0
-11.9601 22.7314 0.0
-13.4629 18.0172 0.0
-14.863 12.1024 0.0
-14.9408 8.11905 0.0
-14.0701 4.79004 0.0
-12.5866 0.595176 0.0
-12.2385 1.20855 0.0
5.47743 27.9903 0.0
-7.16243 9.07041 0.0
7.53028 6.825 0.0
6.57381 9.67353 0.0
1.64263 10.0798 0.0
-1.68315 8.19058 0.0
-2.11927 9.58106 0.0
-2.97759 9.23648 0.0
2.62112 -12.2499 0.0
14.2059 21.9711 0.0
9.06876 25.4785 0.0
0.646412 29.241 0.0
-8.60259 32.0825 0.0
-16.8166 32.526 0.0
-22.8775 29.6754 0.0
-21.1623 27.6158 0.0
-17.2365 26.6352 0.0
-13.8964 26.165 0.0
-12.2353 26.0245 0.0
-12.3442 25.6442 0.0
-13.6376 23.6141 0.0
-15.0844 18.0445 0.0
-15.2037 10.8526 0.0
-13.7509 4.01311 0.0
-10.6955 -5.70197 0.0
-9.85039 -4.08291 0.0
3.78414 6.08171 0.0
-6.75863 1.0967 0.0
-5.8791 4.67914 0.0
5.84412 11.1682 0.0
1.20939 11.6975 0.0
-2.11927 9.58106 0.0
-2.25877 11.2174 0.0
-2.8028 11.3803 0.0
4.73468 16.4017 0.0
12.6845 24.8782 0.0
6.62994 28.149 0.0
-2.3866 31.8905 0.0
-11.33 34.3598 0.0
-18.4177 34.9401 0.0
-23.1302 31.5949 0.0
-21.3282 28.6818 0.0
-17.3522 27.2197 0.0
-13.9506 26.6843 0.0
-12.4364 26.89 0.0
-12.803 27.387 0.0
-14.3149 27.1818 0.0
-16.0395 24.2691 0.0
-16.5178 17.2446 0.0
-14.9175 7.6069 0.0
-5.63914 -22.4736 0.0
-7.38518 -11.2401 0.0
2.53556 -3.62496 0.0
-6.70169 -5.35923 0.0
6.80175 6.23561 0.0
5.09191 11.8435 0.0
0.609787 12.9623 0.0
-2.25877 11.2174 0.0
-2.58347 13.3202 0.0
-2.23224 15.7965 0.0
6.66235 26.5217 0.0
9.55263 28.0865 0.0
3.86433 31.0404 0.0
-5.43089 34.3137 0.0
-13.8514 36.4513 0.0
-19.876 37.2911 0.0
-23.4422 34.0235 0.0
-21.6305 30.1426 0.0
-17.435 27.8468 0.0
-13.7932 27.0465 0.0
-12.4359 27.5537 0.0
-13.2471 28.7931 0.0
-15.2448 29.8136 0.0
-17.442 29.0604 0.0
-18.7502 24.8827 0.0
-18.8637 18.5639 0.0
-21.8543 22.6919 0.0
3.03566 -31.339 0.0
-7.27343 3.14128 0.0
10.1117 7.09886 0.0
6.52296 8.77464 0.0
4.05558 12.5231 0.0
-0.315138 14.0172 0.0
-2.58347 13.3202 0.0
-3.09942 16.0852 0.0
-1.37503 21.0152 0.0
5.56546 28.1143 0.0
7.11483 30.1991 0.0
1.41009 33.1956 0.0
-8.17318 36.1566 0.0
-16.1737 38.2063 0.0
-21.4244 39.514 0.0
-24.1438 37.1069 0.0
-22.3534 32.3389 0.0
-17.6364 28.6582 0.0
-13.3735 27.2335 0.0
-12.1357 28.0533 0.0
-13.5722 30.0757 0.0
-16.214 32.0493 0.0
-18.8982 32.6214 0.0
-20.9608 30.8356 0.0
-22.5794 28.1742 0.0
-25.1659 29.7505 0.0
-26.3183 29.7714 0.0
21.0711 -9.16156 0.0
10.5015 5.88845 0.0
5.61842 10.2504 0.0
2.67799 13.2734 0.0
-1.68224 15.1594 0.0
-3.09942 16.0852 0.0
-3.4639 19.2578 0.0
-0.747277 24.5429 0.0
4.67313 29.0679 0.0
5.4697 31.5453 0.0
-0.515646 34.5904 0.0
-10.4181 37.4452 0.0
-18.2133 39.61 0.0
-23.11 41.5542 0.0
-25.4489 40.5719 0.0
-23.7734 35.5479 0.0
-18.2058 29.9425 0.0
-12.6317 27.2581 0.0
-11.4461 28.4511 0.0
-13.6778 31.2994 0.0
-16.9879 33.9487 0.0
-20.1001 35.2787 0.0
-22.6081 34.8069 0.0
-24.7648 33.7383 0.0
-27.0136 34.4302 0.0
-28.2574 34.9775 0.0
24.4331 -6.1556 0.0
10.2666 5.20601 0.0
4.31569 11.4752 0.0
1.0019 14.3539 0.0
-3.307 16.8361 0.0
-3.4639 19.2578 0.0
-3.45924 22.2215 0.0
-0.336131 26.7296 0.0
4.16292 30.0368 0.0
4.461 32.6445 0.0
-1.90056 35.6472 0.0
-12.1182 38.4481 0.0
-20.0327 40.9188 0.0
-25.0342 43.6369 0.0
-27.4183 44.1151 0.0
-26.1114 39.8349 0.0
-19.8787 32.4606 0.0
-11.7058 27.031 0.0
-10.4092 28.7556 0.0
-13.5049 32.4838 0.0
-17.4936 35.5718 0.0
-20.9681 37.3384 0.0
-23.7048 37.5493 0.0
-25.9375 37.1324 0.0
-27.7952 37.464 0.0
-28.4195 37.6019 0.0
24.1756 -22.7256 0.0
0.476293 -16.9075 0.0
2.25943 13.3679 0.0
-1.21476 16.339 0.0
-4.73377 19.1279 0.0
-3.45924 22.2215 0.0