# vtk DataFile Version 2.0
Particulate Flow Equations Solution
ASCII
DATASET STRUCTURED_GRID
DIMENSIONS 26 26 1
POINTS 676 double
-10 -10 0
-9.23077 -10 0
-8.46154 -10 0
-7.69231 -10 0
-6.92308 -10 0
-6.15385 -10 0
-5.38462 -10 0
-4.61538 -10 0
-3.84615 -10 0
-3.07692 -10 0
-2.30769 -10 0
-1.53846 -10 0
-0.769231 -10 0
5.55112e-016 -10 0
0.769231 -10 0
1.53846 -10 0
2.30769 -10 0
3.07692 -10 0
3.84615 -10 0
4.61538 -10 0
5.38462 -10 0
6.15385 -10 0
6.92308 -10 0
7.69231 -10 0
8.46154 -10 0
10 -10 0
-10 -9.23077 0
-9.23077 -9.23077 0
-8.46154 -9.23077 0
-7.69231 -9.23077 0
-6.92308 -9.23077 0
-6.15385 -9.23077 0
-5.38462 -9.23077 0
-4.61538 -9.23077 0
-3.84615 -9.23077 0
-3.07692 -9.23077 0
-2.30769 -9.23077 0
-1.53846 -9.23077 0
-0.769231 -9.23077 0
5.55112e-016 -9.23077 0
0.769231 -9.23077 0
1.53846 -9.23077 0
2.30769 -9.23077 0
3.07692 -9.23077 0
3.84615 -9.23077 0
4.61538 -9.23077 0
5.38462 -9.23077 0
6.15385 -9.23077 0
6.92308 -9.23077 0
7.69231 -9.23077 0
8.46154 -9.23077 0
10 -9.23077 0
-10 -8.46154 0
-9.23077 -8.46154 0
-8.46154 -8.46154 0
-7.69231 -8.46154 0
-6.92308 -8.46154 0
-6.15385 -8.46154 0
-5.38462 -8.46154 0
-4.61538 -8.46154 0
-3.84615 -8.46154 0
-3.07692 -8.46154 0
-2.30769 -8.46154 0
-1.53846 -8.46154 0
-0.769231 -8.46154 0
5.55112e-016 -8.46154 0
0.769231 -8.46154 0
1.53846 -8.46154 0
2.30769 -8.46154 0
3.07692 -8.46154 0
3.84615 -8.46154 0
4.61538 -8.46154 0
5.38462 -8.46154 0
6.15385 -8.46154 0
6.92308 -8.46154 0
7.69231 -8.46154 0
8.46154 -8.46154 0
10 -8.46154 0
-10 -7.69231 0
-9.23077 -7.69231 0
-8.46154 -7.69231 0
-7.69231 -7.69231 0
-6.92308 -7.69231 0
-6.15385 -7.69231 0
-5.38462 -7.69231 0
-4.61538 -7.69231 0
-3.84615 -7.69231 0
-3.07692 -7.69231 0
-2.30769 -7.69231 0
-1.53846 -7.69231 0
-0.769231 -7.69231 0
5.55112e-016 -7.69231 0
0.769231 -7.69231 0
1.53846 -7.69231 0
2.30769 -7.69231 0
3.07692 -7.69231 0
3.84615 -7.69231 0
4.61538 -7.69231 0
5.38462 -7.69231 0
6.15385 -7.69231 0
6.92308 -7.69231 0
7.69231 -7.69231 0
8.46154 -7.69231 0
10 -7.69231 0
-10 -6.92308 0
-9.23077 -6.92308 0
-8.46154 -6.92308 0
-7.69231 -6.92308 0
-6.92308 -6.92308 0
-6.15385 -6.92308 0
-5.38462 -6.92308 0
-4.61538 -6.92308 0
-3.84615 -6.92308 0
-3.07692 -6.92308 0
-2.30769 -6.92308 0
-1.53846 -6.92308 0
-0.769231 -6.92308 0
5.55112e-016 -6.92308 0
0.769231 -6.92308 0
1.53846 -6.92308 0
2.30769 -6.92308 0
3.07692 -6.92308 0
3.84615 -6.92308 0
4.61538 -6.92308 0
5.38462 -6.92308 0
6.15385 -6.92308 0
6.92308 -6.92308 0
7.69231 -6.92308 0
8.46154 -6.92308 0
10 -6.92308 0
-10 -6.15385 0
-9.23077 -6.15385 0
-8.46154 -6.15385 0
-7.69231 -6.15385 0
-6.92308 -6.15385 0
-6.15385 -6.15385 0
-5.38462 -6.15385 0
-4.61538 -6.15385 0
-3.84615 -6.15385 0
-3.07692 -6.15385 0
-2.30769 -6.15385 0
-1.53846 -6.15385 0
-0.769231 -6.15385 0
5.55112e-016 -6.15385 0
0.769231 -6.15385 0
1.53846 -6.15385 0
2.30769 -6.15385 0
3.07692 -6.15385 0
3.84615 -6.15385 0
4.61538 -6.15385 0
5.38462 -6.15385 0
6.15385 -6.15385 0
6.92308 -6.15385 0
7.69231 -6.15385 0
8.46154 -6.15385 0
10 -6.15385 0
-10 -5.38462 0
-9.23077 -5.38462 0
-8.46154 -5.38462 0
-7.69231 -5.38462 0
-6.92308 -5.38462 0
-6.15385 -5.38462 0
-5.38462 -5.38462 0
-4.61538 -5.38462 0
-3.84615 -5.38462 0
-3.07692 -5.38462 0
-2.30769 -5.38462 0
-1.53846 -5.38462 0
-0.769231 -5.38462 0
5.55112e-016 -5.38462 0
0.769231 -5.38462 0
1.53846 -5.38462 0
2.30769 -5.38462 0
3.07692 -5.38462 0
3.84615 -5.38462 0
4.61538 -5.38462 0
5.38462 -5.38462 0
6.15385 -5.38462 0
6.92308 -5.38462 0
7.69231 -5.38462 0
8.46154 -5.38462 0
10 -5.38462 0
-10 -4.61538 0
-9.23077 -4.61538 0
-8.46154 -4.61538 0
-7.69231 -4.61538 0
-6.92308 -4.61538 0
-6.15385 -4.61538 0
-5.38462 -4.61538 0
-4.61538 -4.61538 0
-3.84615 -4.61538 0
-3.07692 -4.61538 0
-2.30769 -4.61538 0
-1.53846 -4.61538 0
-0.769231 -4.61538 0
5.55112e-016 -4.61538 0
0.769231 -4.61538 0
1.53846 -4.61538 0
2.30769 -4.61538 0
3.07692 -4.61538 0
3.84615 -4.61538 0
4.61538 -4.61538 0
5.38462 -4.61538 0
6.15385 -4.61538 0
6.92308 -4.61538 0
7.69231 -4.61538 0
8.46154 -4.61538 0
10 -4.61538 0
-10 -3.84615 0
-9.23077 -3.84615 0
-8.46154 -3.84615 0
-7.69231 -3.84615 0
-6.92308 -3.84615 0
-6.15385 -3.84615 0
-5.38462 -3.84615 0
-4.61538 -3.84615 0
-3.84615 -3.84615 0
-3.07692 -3.84615 0
-2.30769 -3.84615 0
-1.53846 -3.84615 0
-0.769231 -3.84615 0
5.55112e-016 -3.84615 0
0.769231 -3.84615 0
1.53846 -3.84615 0
2.30769 -3.84615 0
3.07692 -3.84615 0
3.84615 -3.84615 0
4.61538 -3.84615 0
5.38462 -3.84615 0
6.15385 -3.84615 0
6.92308 -3.84615 0
7.69231 -3.84615 0
8.46154 -3.84615 0
10 -3.84615 0
-10 -3.07692 0
-9.23077 -3.07692 0
-8.46154 -3.07692 0
-7.69231 -3.07692 0
-6.92308 -3.07692 0
-6.15385 -3.07692 0
-5.38462 -3.07692 0
-4.61538 -3.07692 0
-3.84615 -3.07692 0
-3.07692 -3.07692 0
-2.30769 -3.07692 0
-1.53846 -3.07692 0
-0.769231 -3.07692 0
5.55112e-016 -3.07692 0
0.769231 -3.07692 0
1.53846 -3.07692 0
2.30769 -3.07692 0
3.07692 -3.07692 0
3.84615 -3.07692 0
4.61538 -3.07692 0
5.38462 -3.07692 0
6.15385 -3.07692 0
6.92308 -3.07692 0
7.69231 -3.07692 0
8.46154 -3.07692 0
10 -3.07692 0
-10 -2.30769 0
-9.23077 -2.30769 0
-8.46154 -2.30769 0
-7.69231 -2.30769 0
-6.92308 -2.30769 0
-6.15385 -2.30769 0
-5.38462 -2.30769 0
-4.61538 -2.30769 0
-3.84615 -2.30769 0
-3.07692 -2.30769 0
-2.30769 -2.30769 0
-1.53846 -2.30769 0
-0.769231 -2.30769 0
5.55112e-016 -2.30769 0
0.769231 -2.30769 0
1.53846 -2.30769 0
2.30769 -2.30769 0
3.07692 -2.30769 0
3.84615 -2.30769 0
4.61538 -2.30769 0
5.38462 -2.30769 0
6.15385 -2.30769 0
6.92308 -2.30769 0
7.69231 -2.30769 0
8.46154 -2.30769 0
10 -2.30769 0
-10 -1.53846 0
-9.23077 -1.53846 0
-8.46154 -1.53846 0
-7.69231 -1.53846 0
-6.92308 -1.53846 0
-6.15385 -1.53846 0
-5.38462 -1.53846 0
-4.61538 -1.53846 0
-3.84615 -1.53846 0
-3.07692 -1.53846 0
-2.30769 -1.53846 0
-1.53846 -1.53846 0
-0.769231 -1.53846 0
5.55112e-016 -1.53846 0
0.769231 -1.53846 0
1.53846 -1.53846 0
2.30769 -1.53846 0
3.07692 -1.53846 0
3.84615 -1.53846 0
4.61538 -1.53846 0
5.38462 -1.53846 0
6.15385 -1.53846 0
6.92308 -1.53846 0
7.69231 -1.53846 0
8.46154 -1.53846 0
10 -1.53846 0
-10 -0.769231 0
-9.23077 -0.769231 0
-8.46154 -0.769231 0
-7.69231 -0.769231 0
-6.92308 -0.769231 0
-6.15385 -0.769231 0
-5.38462 -0.769231 0
-4.61538 -0.769231 0
-3.84615 -0.769231 0
-3.07692 -0.769231 0
-2.30769 -0.769231 0
-1.53846 -0.769231 0
-0.769231 -0.769231 0
5.55112e-016 -0.769231 0
0.769231 -0.769231 0
1.53846 -0.769231 0
2.30769 -0.769231 0
3.07692 -0.769231 0
3.84615 -0.769231 0
4.61538 -0.769231 0
5.38462 -0.769231 0
6.15385 -0.769231 0
6.92308 -0.769231 0
7.69231 -0.769231 0
8.46154 -0.769231 0
10 -0.769231 0
-10 5.55112e-016 0
-9.23077 5.55112e-016 0
-8.46154 5.55112e-016 0
-7.69231 5.55112e-016 0
-6.92308 5.55112e-016 0
-6.15385 5.55112e-016 0
-5.38462 5.55112e-016 0
-4.61538 5.55112e-016 0
-3.84615 5.55112e-016 0
-3.07692 5.55112e-016 0
-2.30769 5.55112e-016 0
-1.53846 5.55112e-016 0
-0.769231 5.55112e-016 0
5.55112e-016 5.55112e-016 0
0.769231 5.55112e-016 0
1.53846 5.55112e-016 0
2.30769 5.55112e-016 0
3.07692 5.55112e-016 0
3.84615 5.55112e-016 0
4.61538 5.55112e-016 0
5.38462 5.55112e-016 0
6.15385 5.55112e-016 0
6.92308 5.55112e-016 0
7.69231 5.55112e-016 0
8.46154 5.55112e-016 0
10 5.55112e-016 0
-10 0.769231 0
-9.23077 0.769231 0
-8.46154 0.769231 0
-7.69231 0.769231 0
-6.92308 0.769231 0
-6.15385 0.769231 0
-5.38462 0.769231 0
-4.61538 0.769231 0
-3.84615 0.769231 0
-3.07692 0.769231 0
-2.30769 0.769231 0
-1.53846 0.769231 0
-0.769231 0.769231 0
5.55112e-016 0.769231 0
0.769231 0.769231 0
1.53846 0.769231 0
2.30769 0.769231 0
3.07692 0.769231 0
3.84615 0.769231 0
4.61538 0.769231 0
5.38462 0.769231 0
6.15385 0.769231 0
6.92308 0.769231 0
7.69231 0.769231 0
8.46154 0.769231 0
10 0.769231 0
-10 1.53846 0
-9.23077 1.53846 0
-8.46154 1.53846 0
-7.69231 1.53846 0
-6.92308 1.53846 0
-6.15385 1.53846 0
-5.38462 1.53846 0
-4.61538 1.53846 0
-3.84615 1.53846 0
-3.07692 1.53846 0
-2.30769 1.53846 0
-1.53846 1.53846 0
-0.769231 1.53846 0
5.55112e-016 1.53846 0
0.769231 1.53846 0
1.53846 1.53846 0
2.30769 1.53846 0
3.07692 1.53846 0
3.84615 1.53846 0
4.61538 1.53846 0
5.38462 1.53846 0
6.15385 1.53846 0
6.92308 1.53846 0
7.69231 1.53846 0
8.46154 1.53846 0
10 1.53846 0
-10 2.30769 0
-9.23077 2.30769 0
-8.46154 2.30769 0
-7.69231 2.30769 0
-6.92308 2.30769 0
-6.15385 2.30769 0
-5.38462 2.30769 0
-4.61538 2.30769 0
-3.84615 2.30769 0
-3.07692 2.30769 0
-2.30769 2.30769 0
-1.53846 2.30769 0
-0.769231 2.30769 0
5.55112e-016 2.30769 0
0.769231 2.30769 0
1.53846 2.30769 0
2.30769 2.30769 0
3.07692 2.30769 0
3.84615 2.30769 0
4.61538 2.30769 0
5.38462 2.30769 0
6.15385 2.30769 0
6.92308 2.30769 0
7.69231 2.30769 0
8.46154 2.30769 0
10 2.30769 0
-10 3.07692 0
-9.23077 3.07692 0
-8.46154 3.07692 0
-7.69231 3.07692 0
-6.92308 3.07692 0
-6.15385 3.07692 0
-5.38462 3.07692 0
-4.61538 3.07692 0
-3.84615 3.07692 0
-3.07692 3.07692 0
-2.30769 3.07692 0
-1.53846 3.07692 0
-0.769231 3.07692 0
5.55112e-016 3.07692 0
0.769231 3.07692 0
1.53846 3.07692 0
2.30769 3.07692 0
3.07692 3.07692 0
3.84615 3.07692 0
4.61538 3.07692 0
5.38462 3.07692 0
6.15385 3.07692 0
6.92308 3.07692 0
7.69231 3.07692 0
8.46154 3.07692 0
10 3.07692 0
-10 3.84615 0
-9.23077 3.84615 0
-8.46154 3.84615 0
-7.69231 3.84615 0
-6.92308 3.84615 0
-6.15385 3.84615 0
-5.38462 3.84615 0
-4.61538 3.84615 0
-3.84615 3.84615 0
-3.07692 3.84615 0
-2.30769 3.84615 0
-1.53846 3.84615 0
-0.769231 3.84615 0
5.55112e-016 3.84615 0
0.769231 3.84615 0
1.53846 3.84615 0
2.30769 3.84615 0
3.07692 3.84615 0
3.84615 3.84615 0
4.61538 3.84615 0
5.38462 3.84615 0
6.15385 3.84615 0
6.92308 3.84615 0
7.69231 3.84615 0
8.46154 3.84615 0
10 3.84615 0
-10 4.61538 0
-9.23077 4.61538 0
-8.46154 4.61538 0
-7.69231 4.61538 0
-6.92308 4.61538 0
-6.15385 4.61538 0
-5.38462 4.61538 0
-4.61538 4.61538 0
-3.84615 4.61538 0
-3.07692 4.61538 0
-2.30769 4.61538 0
-1.53846 4.61538 0
-0.769231 4.61538 0
5.55112e-016 4.61538 0
0.769231 4.61538 0
1.53846 4.61538 0
2.30769 4.61538 0
3.07692 4.61538 0
3.84615 4.61538 0
4.61538 4.61538 0
5.38462 4.61538 0
6.15385 4.61538 0
6.92308 4.61538 0
7.69231 4.61538 0
8.46154 4.61538 0
10 4.61538 0
-10 5.38462 0
-9.23077 5.38462 0
-8.46154 5.38462 0
-7.69231 5.38462 0
-6.92308 5.38462 0
-6.15385 5.38462 0
-5.38462 5.38462 0
-4.61538 5.38462 0
-3.84615 5.38462 0
-3.07692 5.38462 0
-2.30769 5.38462 0
-1.53846 5.38462 0
-0.769231 5.38462 0
5.55112e-016 5.38462 0
0.769231 5.38462 0
1.53846 5.38462 0
2.30769 5.38462 0
3.07692 5.38462 0
3.84615 5.38462 0
4.61538 5.38462 0
5.38462 5.38462 0
6.15385 5.38462 0
6.92308 5.38462 0
7.69231 5.38462 0
8.46154 5.38462 0
10 5.38462 0
-10 6.15385 0
-9.23077 6.15385 0
-8.46154 6.15385 0
-7.69231 6.15385 0
-6.92308 6.15385 0
-6.15385 6.15385 0
-5.38462 6.15385 0
-4.61538 6.15385 0
-3.84615 6.15385 0
-3.07692 6.15385 0
-2.30769 6.15385 0
-1.53846 6.15385 0
-0.769231 6.15385 0
5.55112e-016 6.15385 0
0.769231 6.15385 0
1.53846 6.15385 0
2.30769 6.15385 0
3.07692 6.15385 0
3.84615 6.15385 0
4.61538 6.15385 0
5.38462 6.15385 0
6.15385 6.15385 0
6.92308 6.15385 0
7.69231 6.15385 0
8.46154 6.15385 0
10 6.15385 0
-10 6.92308 0
-9.23077 6.92308 0
-8.46154 6.92308 0
-7.69231 6.92308 0
-6.92308 6.92308 0
-6.15385 6.92308 0
-5.38462 6.92308 0
-4.61538 6.92308 0
-3.84615 6.92308 0
-3.07692 6.92308 0
-2.30769 6.92308 0
-1.53846 6.92308 0
-0.769231 6.92308 0
5.55112e-016 6.92308 0
0.769231 6.92308 0
1.53846 6.92308 0
2.30769 6.92308 0
3.07692 6.92308 0
3.84615 6.92308 0
4.61538 6.92308 0
5.38462 6.92308 0
6.15385 6.92308 0
6.92308 6.92308 0
7.69231 6.92308 0
8.46154 6.92308 0
10 6.92308 0
-10 7.69231 0
-9.23077 7.69231 0
-8.46154 7.69231 0
-7.69231 7.69231 0
-6.92308 7.69231 0
-6.15385 7.69231 0
-5.38462 7.69231 0
-4.61538 7.69231 0
-3.84615 7.69231 0
-3.07692 7.69231 0
-2.30769 7.69231 0
-1.53846 7.69231 0
-0.769231 7.69231 0
5.55112e-016 7.69231 0
0.769231 7.69231 0
1.53846 7.69231 0
2.30769 7.69231 0
3.07692 7.69231 0
3.84615 7.69231 0
4.61538 7.69231 0
5.38462 7.69231 0
6.15385 7.69231 0
6.92308 7.69231 0
7.69231 7.69231 0
8.46154 7.69231 0
10 7.69231 0
-10 8.46154 0
-9.23077 8.46154 0
-8.46154 8.46154 0
-7.69231 8.46154 0
-6.92308 8.46154 0
-6.15385 8.46154 0
-5.38462 8.46154 0
-4.61538 8.46154 0
-3.84615 8.46154 0
-3.07692 8.46154 0
-2.30769 8.46154 0
-1.53846 8.46154 0
-0.769231 8.46154 0
5.55112e-016 8.46154 0
0.769231 8.46154 0
1.53846 8.46154 0
2.30769 8.46154 0
3.07692 8.46154 0
3.84615 8.46154 0
4.61538 8.46154 0
5.38462 8.46154 0
6.15385 8.46154 0
6.92308 8.46154 0
7.69231 8.46154 0
8.46154 8.46154 0
10 8.46154 0
-10 10 0
-9.23077 10 0
-8.46154 10 0
-7.69231 10 0
-6.92308 10 0
-6.15385 10 0
-5.38462 10 0
-4.61538 10 0
-3.84615 10 0
-3.07692 10 0
-2.30769 10 0
-1.53846 10 0
-0.769231 10 0
5.55112e-016 10 0
0.769231 10 0
1.53846 10 0
2.30769 10 0
3.07692 10 0
3.84615 10 0
4.61538 10 0
5.38462 10 0
6.15385 10 0
6.92308 10 0
7.69231 10 0
8.46154 10 0
10 10 0

POINT_DATA 676
SCALARS h double 1
LOOkUP_TABLE default
0.0046029
0.00472244
0.00497043
0.00540267
0.00615554
0.00748998
0.00978266
0.0133823
0.0183214
0.0240362
0.0293549
0.0328988
0.0337194
0.0317412
0.0277136
0.022763
0.0178994
0.0137479
0.0105385
0.00823472
0.00667637
0.00567733
0.00507436
0.0047436
0.00460176
0.0046029
0.00652751
0.00680051
0.00716222
0.00763036
0.00824825
0.00910219
0.0103305
0.0120928
0.0144666
0.0173014
0.020138
0.0223044
0.0231889
0.022532
0.0205373
0.0177404
0.0147516
0.0120436
0.00986924
0.0082899
0.00724867
0.00663795
0.00634385
0.00626935
0.00634377
0.00652751
0.00961817
0.010135
0.0106732
0.0112352
0.0118257
0.0124549
0.013144
0.013931
0.0148505
0.015882
0.0168924
0.017634
0.0178278
0.0172995
0.0160785
0.0143914
0.0125628
0.0108932
0.00958131
0.00870798
0.00826085
0.00817103
0.00834526
0.00869003
0.00912921
0.00961817
0.0145182
0.0154307
0.016223
0.016887
0.0174116
0.0177797
0.0179711
0.0179795
0.0178253
0.0175457
0.0171623
0.0166527
0.0159563
0.0150223
0.0138657
0.0125916
0.0113702
0.0103816
0.00976429
0.00958771
0.00984966
0.0104867
0.0113915
0.0124371
0.0135055
0.0145182
0.0221365
0.0237269
0.0249145
0.025673
0.0259903
0.0258591
0.025279
0.0242768
0.022924
0.0213345
0.0196359
0.0179317
0.016282
0.0147164
0.0132678
0.0120016
0.0110217
0.0104513
0.0104016
0.0109441
0.0120874
0.0137614
0.0158146
0.0180357
0.020201
0.0221365
0.0336415
0.0364541
0.0383378
0.0392218
0.0391051
0.0380384
0.0361204
0.0335094
0.0304248
0.0271217
0.0238447
0.0207826
0.0180489
0.0156955
0.0137498
0.0122519
0.0112773
0.0109367
0.0113592
0.012661
0.0149022
0.0180326
0.0218493
0.0260017
0.0300614
0.0336415
0.0503024
0.0553697
0.0586072
0.0598173
0.0590105
0.0563667
0.0522084
0.0469792
0.0411958
0.0353658
0.0298999
0.0250594
0.0209574
0.0176053
0.0149757
0.0130596
0.0119035
0.0116247
0.0124062
0.0144673
0.0179982
0.0230521
0.0294252
0.0366017
0.0438253
0.0503024
0.0730265
0.0821952
0.0881494
0.0903462
0.0887443
0.0837374
0.0760653
0.0667065
0.0567201
0.0470509
0.03837
0.0310166
0.0250504
0.0203653
0.0168087
0.0142701
0.0127361
0.0123201
0.0132728
0.0159672
0.0208262
0.0281554
0.0379021
0.0494571
0.0616507
0.0730265
0.101484
0.117729
0.128958
0.133784
0.131859
0.123817
0.111073
0.0955254
0.0791748
0.0637166
0.0502556
0.0392454
0.0306344
0.024102
0.0192721
0.0158522
0.0137086
0.0129067
0.0137411
0.0167522
0.02268
0.0322699
0.0458926
0.0631052
0.0824115
0.101484
0.132987
0.160379
0.181045
0.191829
0.191394
0.180388
0.161121
0.136937
0.111392
0.0874522
0.0669762
0.050638
0.038228
0.0290923
0.0225009
0.0178676
0.0148475
0.0133815
0.0137377
0.0165708
0.0229447
0.0341856
0.0514198
0.0748481
0.103073
0.132987
0.161825
0.204634
0.24028
0.262527
0.267706
0.255633
0.229415
0.194366
0.156434
0.120668
0.0902414
0.0663029
0.0484938
0.0357029
0.0266873
0.0204229
0.0162368
0.0138418
0.0133719
0.0154711
0.0214104
0.0330783
0.0525805
0.0813227
0.118807
0.161825
0.180191
0.240849
0.296811
0.337622
0.355361
0.347205
0.316106
0.269463
0.216489
0.165422
0.121658
0.0873363
0.0620989
0.0442988
0.0320134
0.0236131
0.0179598
0.0144235
0.0128828
0.013807
0.0184472
0.0290156
0.048519
0.0799007
0.124466
0.180191
0.181237
0.25785
0.336221
0.401794
0.44075
0.445007
0.415079
0.359444
0.290942
0.222156
0.161962
0.114379
0.079467
0.0551049
0.0385711
0.0274669
0.0200454
0.0152225
0.0125163
0.0120752
0.0148755
0.0230562
0.040085
0.0702487
0.117121
0.181237
0.162959
0.248195
0.3448
0.436373
0.503365
0.530222
0.511654
0.454478
0.374116
0.288052
0.209953
0.146985
0.100433
0.0680286
0.0462774
0.0319071
0.022441
0.0162464
0.012412
0.0106814
0.011578
0.0167799
0.0295743
0.054857
0.0980837
0.162959
0.130007
0.212946
0.316945
0.427654
0.522815
0.579586
0.584031
0.537211
0.454002
0.355732
0.261515
0.183005
0.123898
0.0824939
0.0548081
0.0367357
0.0250192
0.0174208
0.0125695
0.00979318
0.00911655
0.011543
0.0196226
0.0379147
0.0726391
0.130007
0.0915771
0.161938
0.259393
0.375149
0.489202
0.575098
0.610311
0.586647
0.513758
0.41348
0.30938
0.218309
0.147654
0.0973567
0.0635737
0.0416427
0.0276059
0.0186313
0.0128969
0.00935497
0.00759731
0.00796705
0.0120295
0.0232733
0.0474073
0.0915771
0.0567921
0.108788
0.188288
0.293145
0.409841
0.514104
0.57882
0.586258
0.536799
0.447863
0.344253
0.247198
0.168518
0.110957
0.0717507
0.0462323
0.0300083
0.0197637
0.0132836
0.00920841
0.00681007
0.00593794
0.00726876
0.0129491
0.0272949
0.0567921
0.0310033
0.0644236
0.120976
0.203567
0.306408
0.412156
0.49529
0.532408
0.513872
0.448407
0.357372
0.263614
0.18284
0.121318
0.0783567
0.0500499
0.0320256
0.0207198
0.0136421
0.00920312
0.00646206
0.00496764
0.00479899
0.00694936
0.0140666
0.0310033
0.0150653
0.033621
0.0687103
0.125504
0.204178
0.295705
0.381113
0.437371
0.448148
0.412328
0.343765
0.262947
0.187352
0.126488
0.0823639
0.0526086
0.033447
0.0214089
0.0139119
0.00923973
0.00632892
0.00457183
0.00373431
0.00408387
0.00687186
0.0150653
0.0068927
0.0156371
0.0345242
0.0686781
0.12126
0.189794
0.263382
0.324221
0.354735
0.346552
0.304694
0.243837
0.18018
0.124997
0.0828676
0.053432
0.0340493
0.0217336
0.0140424
0.00926102
0.00628439
0.00443989
0.00336114
0.00297203
0.00367887
0.0068927
0.00350006
0.00690749
0.0156007
0.0334932
0.0642968
0.109115
0.16358
0.216794
0.254432
0.265428
0.247802
0.209142
0.161707
0.116376
0.0793289
0.0521452
0.0336221
0.0215895
0.0139826
0.00923094
0.00626978
0.00442333
0.00328579
0.00265469
0.00256211
0.00350006
0.00243988
0.00351478
0.00689906
0.0149966
0.0307972
0.056541
0.0916744
0.131089
0.165528
0.185156
0.184539
0.16535
0.134823
0.101542
0.0718456
0.0486195
0.0320322
0.0208898
0.0136859
0.00912464
0.00626215
0.00446935
0.00334911
0.00266791
0.00233063
0.00243988
0.00234488
0.00260666
0.00376294
0.00696889
0.0140856
0.0271338
0.0470859
0.0724021
0.0983257
0.118108
0.126059
0.120477
0.104233
0.0827698
0.0613091
0.0431144
0.0293123
0.0196119
0.0131306
0.00893294
0.00626081
0.00457384
0.00351374
0.00285559
0.00247424
0.00234488
0.00270194
0.00274552
0.00315224
0.00437649
0.00732149
0.0132794
0.0233971
0.0377464
0.0544869
0.0699038
0.0797718
0.0814129
0.0749899
0.0631195
0.0492872
0.0363201
0.0257253
0.0178448
0.012349
0.00867735
0.00629104
0.00476705
0.00380638
0.00321161
0.00286214
0.00270194
0.00341654
0.00345204
0.00367681
0.00425232
0.00554685
0.00819656
0.0129703
0.0203351
0.0298679
0.0399339
0.0480645
0.0520227
0.0509012
0.045467
0.0375756
0.0291995
0.0217278
0.0157878
0.0114303
0.00841014
0.00640013
0.00510303
0.00428926
0.00379791
0.00352559
0.00341654
0.0046029
0.00472244
0.00497043
0.00540267
0.00615554
0.00748998
0.00978266
0.0133823
0.0183214
0.0240362
0.0293549
0.0328988
0.0337194
0.0317412
0.0277136
0.022763
0.0178994
0.0137479
0.0105385
0.00823472
0.00667637
0.00567733
0.00507436
0.0047436
0.00460176
0.0046029

VECTORS u double
-118.878 121.385 0.0
-117.49 122.932 0.0
-116.648 123.934 0.0
-116.576 124.343 0.0
-117.592 124.034 0.0
-120.042 122.995 0.0
-123.915 121.5 0.0
-128.597 120.01 0.0
-133.277 118.822 0.0
-137.434 117.941 0.0
-140.862 117.225 0.0
-143.52 116.517 0.0
-145.413 115.7 0.0
-146.553 114.708 0.0
-146.943 113.533 0.0
-146.577 112.232 0.0
-145.438 110.935 0.0
-143.517 109.856 0.0
-140.849 109.269 0.0
-137.565 109.43 0.0
-133.914 110.464 0.0
-130.219 112.276 0.0
-126.769 114.579 0.0
-123.735 117.028 0.0
-121.157 119.347 0.0
-118.878 121.385 0.0
-120.156 126.076 0.0
-119.175 127.441 0.0
-118.644 128.183 0.0
-118.677 128.422 0.0
-119.382 128.103 0.0
-120.879 127.163 0.0
-123.246 125.612 0.0
-126.409 123.625 0.0
-130.06 121.538 0.0
-133.748 119.653 0.0
-137.082 118.079 0.0
-139.826 116.759 0.0
-141.873 115.567 0.0
-143.181 114.402 0.0
-143.733 113.22 0.0
-143.508 112.068 0.0
-142.484 111.092 0.0
-140.662 110.535 0.0
-138.118 110.684 0.0
-135.055 111.747 0.0
-131.797 113.71 0.0
-128.685 116.301 0.0
-125.958 119.12 0.0
-123.698 121.811 0.0
-121.873 124.154 0.0
-120.156 126.076 0.0
-121.988 130.142 0.0
-121.326 131.295 0.0
-121.038 131.834 0.0
-121.23 131.894 0.0
-121.959 131.48 0.0
-123.253 130.574 0.0
-125.094 129.158 0.0
-127.402 127.258 0.0
-130.032 124.996 0.0
-132.779 122.592 0.0
-135.408 120.281 0.0
-137.707 118.206 0.0
-139.513 116.393 0.0
-140.719 114.802 0.0
-141.249 113.409 0.0
-141.04 112.27 0.0
-140.048 111.551 0.0
-138.283 111.519 0.0
-135.872 112.44 0.0
-133.101 114.401 0.0
-130.34 117.189 0.0
-127.899 120.362 0.0
-125.917 123.467 0.0
-124.378 126.201 0.0
-123.186 128.425 0.0
-121.988 130.142 0.0
-124.08 133.541 0.0
-123.712 134.531 0.0
-123.634 134.947 0.0
-123.968 134.885 0.0
-124.769 134.38 0.0
-126.05 133.439 0.0
-127.76 132.063 0.0
-129.786 130.261 0.0
-131.971 128.073 0.0
-134.141 125.595 0.0
-136.142 122.985 0.0
-137.846 120.419 0.0
-139.156 118.038 0.0
-139.983 115.934 0.0
-140.239 114.18 0.0
-139.833 112.902 0.0
-138.698 112.327 0.0
-136.859 112.748 0.0
-134.505 114.373 0.0
-131.994 117.112 0.0
-129.71 120.531 0.0
-127.884 124.065 0.0
-126.543 127.275 0.0
-125.587 129.941 0.0
-124.884 132.008 0.0
-124.08 133.541 0.0
-126.294 136.302 0.0
-126.182 137.215 0.0
-126.295 137.584 0.0
-126.76 137.477 0.0
-127.641 136.928 0.0
-128.949 135.957 0.0
-130.633 134.578 0.0
-132.571 132.803 0.0
-134.599 130.658 0.0
-136.538 128.194 0.0
-138.231 125.501 0.0
-139.57 122.71 0.0
-140.483 119.973 0.0
-140.918 117.448 0.0
-140.808 115.309 0.0
-140.066 113.791 0.0
-138.631 113.221 0.0
-136.557 113.95 0.0
-134.116 116.126 0.0
-131.74 119.469 0.0
-129.807 123.338 0.0
-128.453 127.089 0.0
-127.603 130.329 0.0
-127.096 132.92 0.0
-126.777 134.874 0.0
-126.294 136.302 0.0
-128.505 138.466 0.0
-128.624 139.39 0.0
-128.918 139.786 0.0
-129.514 139.701 0.0
-130.482 139.167 0.0
-131.836 138.205 0.0
-133.527 136.832 0.0
-135.435 135.064 0.0
-137.399 132.924 0.0
-139.24 130.452 0.0
-140.799 127.709 0.0
-141.962 124.791 0.0
-142.657 121.83 0.0
-142.836 118.992 0.0
-142.438 116.501 0.0
-141.377 114.677 0.0
-139.594 113.962 0.0
-137.186 114.805 0.0
-134.519 117.344 0.0
-132.123 121.135 0.0
-130.38 125.349 0.0
-129.347 129.275 0.0
-128.858 132.56 0.0
-128.702 135.134 0.0
-128.705 137.054 0.0
-128.505 138.466 0.0
-130.613 140.054 0.0
-130.952 141.064 0.0
-131.425 141.553 0.0
-132.158 141.554 0.0
-133.222 141.091 0.0
-134.637 140.184 0.0
-136.354 138.849 0.0
-138.261 137.104 0.0
-140.196 134.97 0.0
-141.984 132.478 0.0
-143.468 129.682 0.0
-144.534 126.659 0.0
-145.11 123.522 0.0
-145.142 120.428 0.0
-144.565 117.607 0.0
-143.279 115.418 0.0
-141.205 114.395 0.0
-138.445 115.123 0.0
-135.454 117.816 0.0
-132.891 121.932 0.0
-131.188 126.458 0.0
-130.348 130.587 0.0
-130.125 133.979 0.0
-130.258 136.611 0.0
-130.547 138.578 0.0
-130.613 140.054 0.0
-132.539 141.059 0.0
-133.098 142.214 0.0
-133.755 142.852 0.0
-134.631 142.992 0.0
-135.8 142.65 0.0
-137.286 141.844 0.0
-139.045 140.589 0.0
-140.969 138.9 0.0
-142.898 136.795 0.0
-144.658 134.302 0.0
-146.094 131.463 0.0
-147.093 128.349 0.0
-147.587 125.06 0.0
-147.529 121.74 0.0
-146.853 118.603 0.0
-145.446 116.002 0.0
-143.184 114.514 0.0
-140.121 114.872 0.0
-136.748 117.477 0.0
-133.881 121.803 0.0
-132.074 126.647 0.0
-131.314 131.04 0.0
-131.284 134.613 0.0
-131.662 137.376 0.0
-132.215 139.456 0.0
-132.539 141.059 0.0
-134.221 141.449 0.0
-135.006 142.789 0.0
-135.854 143.619 0.0
-136.882 143.943 0.0
-138.164 143.769 0.0
-139.728 143.107 0.0
-141.539 141.971 0.0
-143.493 140.376 0.0
-145.433 138.337 0.0
-147.185 135.874 0.0
-148.593 133.024 0.0
-149.545 129.847 0.0
-149.978 126.436 0.0
-149.857 122.922 0.0
-149.133 119.496 0.0
-147.691 116.47 0.0
-145.366 114.402 0.0
-142.106 114.133 0.0
-138.345 116.358 0.0
-135.042 120.742 0.0
-132.971 125.915 0.0
-132.175 130.65 0.0
-132.264 134.483 0.0
-132.845 137.436 0.0
-133.643 139.678 0.0
-134.221 141.449 0.0
-135.61 141.192 0.0
-136.624 142.738 0.0
-137.676 143.784 0.0
-138.868 144.326 0.0
-140.271 144.357 0.0
-141.92 143.877 0.0
-143.787 142.898 0.0
-145.775 141.433 0.0
-147.737 139.496 0.0
-149.497 137.103 0.0
-150.898 134.282 0.0
-151.823 131.084 0.0
-152.214 127.592 0.0
-152.05 123.929 0.0
-151.304 120.262 0.0
-149.89 116.849 0.0
-147.622 114.167 0.0
-144.327 113.069 0.0
-140.251 114.568 0.0
-136.405 118.766 0.0
-133.884 124.252 0.0
-132.907 129.419 0.0
-133.03 133.596 0.0
-133.767 136.796 0.0
-134.782 139.233 0.0
-135.61 141.192 0.0
-136.663 140.277 0.0
-137.91 142.028 0.0
-139.176 143.297 0.0
-140.546 144.071 0.0
-142.085 144.332 0.0
-143.826 144.066 0.0
-145.752 143.276 0.0
-147.778 141.972 0.0
-149.764 140.17 0.0
-151.541 137.884 0.0
-152.949 135.135 0.0
-153.869 131.963 0.0
-154.239 128.442 0.0
-154.049 124.685 0.0
-153.298 120.841 0.0
-151.939 117.12 0.0
-149.813 113.887 0.0
-146.665 111.884 0.0
-142.464 112.312 0.0
-138.054 115.935 0.0
-134.877 121.632 0.0
-133.529 127.327 0.0
-133.575 131.954 0.0
-134.404 135.463 0.0
-135.6 138.122 0.0
-136.663 140.277 0.0
-137.353 138.724 0.0
-138.826 140.665 0.0
-140.314 142.144 0.0
-141.877 143.149 0.0
-143.568 143.648 0.0
-145.416 143.615 0.0
-147.41 143.039 0.0
-149.475 141.925 0.0
-151.486 140.285 0.0
-153.283 138.136 0.0
-154.709 135.495 0.0
-155.641 132.395 0.0
-156.012 128.899 0.0
-155.813 125.107 0.0
-155.063 121.158 0.0
-153.758 117.227 0.0
-151.799 113.578 0.0
-148.931 110.759 0.0
-144.884 109.909 0.0
-140.069 112.43 0.0
-136.068 118.037 0.0
-134.103 124.331 0.0
-133.916 129.554 0.0
-134.754 133.46 0.0
-136.081 136.376 0.0
-137.353 138.724 0.0
-137.672 136.597 0.0
-139.353 138.707 0.0
-141.058 140.369 0.0
-142.825 141.583 0.0
-144.685 142.313 0.0
-146.659 142.518 0.0
-148.736 142.172 0.0
-150.851 141.268 0.0
-152.891 139.815 0.0
-154.711 137.828 0.0
-156.159 135.325 0.0
-157.115 132.337 0.0
-157.505 128.914 0.0
-157.315 125.148 0.0
-156.573 121.164 0.0
-155.306 117.119 0.0
-153.482 113.209 0.0
-150.921 109.791 0.0
-147.269 107.722 0.0
-142.422 108.64 0.0
-137.604 113.536 0.0
-134.734 120.362 0.0
-134.099 126.373 0.0
-134.836 130.817 0.0
-136.229 134.05 0.0
-137.672 136.597 0.0
-137.628 133.991 0.0
-139.486 136.253 0.0
-141.393 138.066 0.0
-143.362 139.458 0.0
-145.404 140.395 0.0
-147.524 140.829 0.0
-149.705 140.718 0.0
-151.888 140.039 0.0
-153.969 138.793 0.0
-155.818 136.991 0.0
-157.294 134.654 0.0
-158.282 131.809 0.0
-158.705 128.503 0.0
-158.541 124.816 0.0
-157.815 120.862 0.0
-156.572 116.786 0.0
-154.83 112.751 0.0
-152.504 108.983 0.0
-149.313 106.008 0.0
-144.86 105.171 0.0
-139.573 108.458 0.0
-135.58 115.362 0.0
-134.197 122.343 0.0
-134.68 127.555 0.0
-136.063 131.217 0.0
-137.628 133.991 0.0
-137.247 131.017 0.0
-139.241 133.435 0.0
-141.322 135.372 0.0
-143.48 136.904 0.0
-145.704 138.015 0.0
-147.984 138.656 0.0
-150.291 138.772 0.0
-152.563 138.327 0.0
-154.705 137.304 0.0
-156.596 135.71 0.0
-158.11 133.563 0.0
-159.138 130.892 0.0
-159.604 127.74 0.0
-159.48 124.179 0.0
-158.782 120.314 0.0
-157.558 116.279 0.0
-155.854 112.222 0.0
-153.659 108.307 0.0
-150.819 104.823 0.0
-146.954 102.585 0.0
-141.819 103.589 0.0
-136.81 109.452 0.0
-134.32 117.333 0.0
-134.331 123.639 0.0
-135.613 127.938 0.0
-137.247 131.017 0.0
-136.552 127.764 0.0
-138.648 130.387 0.0
-140.868 132.439 0.0
-143.187 134.078 0.0
-145.582 135.326 0.0
-148.024 136.142 0.0
-150.471 136.468 0.0
-152.854 136.253 0.0
-155.078 135.465 0.0
-157.031 134.1 0.0
-158.598 132.169 0.0
-159.677 129.701 0.0
-160.197 126.739 0.0
-160.124 123.347 0.0
-159.467 119.622 0.0
-158.268 115.69 0.0
-156.579 111.691 0.0
-154.432 107.768 0.0
-151.775 104.092 0.0
-148.383 101.065 0.0
-143.842 99.9591 0.0
-138.444 103.348 0.0
-134.617 111.231 0.0
-133.829 118.921 0.0
-134.896 124.212 0.0