# vtk DataFile Version 2.0
Particulate Flow Equations Solution
ASCII
DATASET STRUCTURED_GRID
DIMENSIONS 26 26 1
POINTS 676 double
-45 -45 0
-41.5385 -45 0
-38.0769 -45 0
-34.6154 -45 0
-31.1538 -45 0
-27.6923 -45 0
-24.2308 -45 0
-20.7692 -45 0
-17.3077 -45 0
-13.8462 -45 0
-10.3846 -45 0
-6.92308 -45 0
-3.46154 -45 0
1.77636e-015 -45 0
3.46154 -45 0
6.92308 -45 0
10.3846 -45 0
13.8462 -45 0
17.3077 -45 0
20.7692 -45 0
24.2308 -45 0
27.6923 -45 0
31.1538 -45 0
34.6154 -45 0
38.0769 -45 0
45 -45 0
-45 -41.5385 0
-41.5385 -41.5385 0
-38.0769 -41.5385 0
-34.6154 -41.5385 0
-31.1538 -41.5385 0
-27.6923 -41.5385 0
-24.2308 -41.5385 0
-20.7692 -41.5385 0
-17.3077 -41.5385 0
-13.8462 -41.5385 0
-10.3846 -41.5385 0
-6.92308 -41.5385 0
-3.46154 -41.5385 0
1.77636e-015 -41.5385 0
3.46154 -41.5385 0
6.92308 -41.5385 0
10.3846 -41.5385 0
13.8462 -41.5385 0
17.3077 -41.5385 0
20.7692 -41.5385 0
24.2308 -41.5385 0
27.6923 -41.5385 0
31.1538 -41.5385 0
34.6154 -41.5385 0
38.0769 -41.5385 0
45 -41.5385 0
-45 -38.0769 0
-41.5385 -38.0769 0
-38.0769 -38.0769 0
-34.6154 -38.0769 0
-31.1538 -38.0769 0
-27.6923 -38.0769 0
-24.2308 -38.0769 0
-20.7692 -38.0769 0
-17.3077 -38.0769 0
-13.8462 -38.0769 0
-10.3846 -38.0769 0
-6.92308 -38.0769 0
-3.46154 -38.0769 0
1.77636e-015 -38.0769 0
3.46154 -38.0769 0
6.92308 -38.0769 0
10.3846 -38.0769 0
13.8462 -38.0769 0
17.3077 -38.0769 0
20.7692 -38.0769 0
24.2308 -38.0769 0
27.6923 -38.0769 0
31.1538 -38.0769 0
34.6154 -38.0769 0
38.0769 -38.0769 0
45 -38.0769 0
-45 -34.6154 0
-41.5385 -34.6154 0
-38.0769 -34.6154 0
-34.6154 -34.6154 0
-31.1538 -34.6154 0
-27.6923 -34.6154 0
-24.2308 -34.6154 0
-20.7692 -34.6154 0
-17.3077 -34.6154 0
-13.8462 -34.6154 0
-10.3846 -34.6154 0
-6.92308 -34.6154 0
-3.46154 -34.6154 0
1.77636e-015 -34.6154 0
3.46154 -34.6154 0
6.92308 -34.6154 0
10.3846 -34.6154 0
13.8462 -34.6154 0
17.3077 -34.6154 0
20.7692 -34.6154 0
24.2308 -34.6154 0
27.6923 -34.6154 0
31.1538 -34.6154 0
34.6154 -34.6154 0
38.0769 -34.6154 0
45 -34.6154 0
-45 -31.1538 0
-41.5385 -31.1538 0
-38.0769 -31.1538 0
-34.6154 -31.1538 0
-31.1538 -31.1538 0
-27.6923 -31.1538 0
-24.2308 -31.1538 0
-20.7692 -31.1538 0
-17.3077 -31.1538 0
-13.8462 -31.1538 0
-10.3846 -31.1538 0
-6.92308 -31.1538 0
-3.46154 -31.1538 0
1.77636e-015 -31.1538 0
3.46154 -31.1538 0
6.92308 -31.1538 0
10.3846 -31.1538 0
13.8462 -31.1538 0
17.3077 -31.1538 0
20.7692 -31.1538 0
24.2308 -31.1538 0
27.6923 -31.1538 0
31.1538 -31.1538 0
34.6154 -31.1538 0
38.0769 -31.1538 0
45 -31.1538 0
-45 -27.6923 0
-41.5385 -27.6923 0
-38.0769 -27.6923 0
-34.6154 -27.6923 0
-31.1538 -27.6923 0
-27.6923 -27.6923 0
-24.2308 -27.6923 0
-20.7692 -27.6923 0
-17.3077 -27.6923 0
-13.8462 -27.6923 0
-10.3846 -27.6923 0
-6.92308 -27.6923 0
-3.46154 -27.6923 0
1.77636e-015 -27.6923 0
3.46154 -27.6923 0
6.92308 -27.6923 0
10.3846 -27.6923 0
13.8462 -27.6923 0
17.3077 -27.6923 0
20.7692 -27.6923 0
24.2308 -27.6923 0
27.6923 -27.6923 0
31.1538 -27.6923 0
34.6154 -27.6923 0
38.0769 -27.6923 0
45 -27.6923 0
-45 -24.2308 0
-41.5385 -24.2308 0
-38.0769 -24.2308 0
-34.6154 -24.2308 0
-31.1538 -24.2308 0
-27.6923 -24.2308 0
-24.2308 -24.2308 0
-20.7692 -24.2308 0
-17.3077 -24.2308 0
-13.8462 -24.2308 0
-10.3846 -24.2308 0
-6.92308 -24.2308 0
-3.46154 -24.2308 0
1.77636e-015 -24.2308 0
3.46154 -24.2308 0
6.92308 -24.2308 0
10.3846 -24.2308 0
13.8462 -24.2308 0
17.3077 -24.2308 0
20.7692 -24.2308 0
24.2308 -24.2308 0
27.6923 -24.2308 0
31.1538 -24.2308 0
34.6154 -24.2308 0
38.0769 -24.2308 0
45 -24.2308 0
-45 -20.7692 0
-41.5385 -20.7692 0
-38.0769 -20.7692 0
-34.6154 -20.7692 0
-31.1538 -20.7692 0
-27.6923 -20.7692 0
-24.2308 -20.7692 0
-20.7692 -20.7692 0
-17.3077 -20.7692 0
-13.8462 -20.7692 0
-10.3846 -20.7692 0
-6.92308 -20.7692 0
-3.46154 -20.7692 0
1.77636e-015 -20.7692 0
3.46154 -20.7692 0
6.92308 -20.7692 0
10.3846 -20.7692 0
13.8462 -20.7692 0
17.3077 -20.7692 0
20.7692 -20.7692 0
24.2308 -20.7692 0
27.6923 -20.7692 0
31.1538 -20.7692 0
34.6154 -20.7692 0
38.0769 -20.7692 0
45 -20.7692 0
-45 -17.3077 0
-41.5385 -17.3077 0
-38.0769 -17.3077 0
-34.6154 -17.3077 0
-31.1538 -17.3077 0
-27.6923 -17.3077 0
-24.2308 -17.3077 0
-20.7692 -17.3077 0
-17.3077 -17.3077 0
-13.8462 -17.3077 0
-10.3846 -17.3077 0
-6.92308 -17.3077 0
-3.46154 -17.3077 0
1.77636e-015 -17.3077 0
3.46154 -17.3077 0
6.92308 -17.3077 0
10.3846 -17.3077 0
13.8462 -17.3077 0
17.3077 -17.3077 0
20.7692 -17.3077 0
24.2308 -17.3077 0
27.6923 -17.3077 0
31.1538 -17.3077 0
34.6154 -17.3077 0
38.0769 -17.3077 0
45 -17.3077 0
-45 -13.8462 0
-41.5385 -13.8462 0
-38.0769 -13.8462 0
-34.6154 -13.8462 0
-31.1538 -13.8462 0
-27.6923 -13.8462 0
-24.2308 -13.8462 0
-20.7692 -13.8462 0
-17.3077 -13.8462 0
-13.8462 -13.8462 0
-10.3846 -13.8462 0
-6.92308 -13.8462 0
-3.46154 -13.8462 0
1.77636e-015 -13.8462 0
3.46154 -13.8462 0
6.92308 -13.8462 0
10.3846 -13.8462 0
13.8462 -13.8462 0
17.3077 -13.8462 0
20.7692 -13.8462 0
24.2308 -13.8462 0
27.6923 -13.8462 0
31.1538 -13.8462 0
34.6154 -13.8462 0
38.0769 -13.8462 0
45 -13.8462 0
-45 -10.3846 0
-41.5385 -10.3846 0
-38.0769 -10.3846 0
-34.6154 -10.3846 0
-31.1538 -10.3846 0
-27.6923 -10.3846 0
-24.2308 -10.3846 0
-20.7692 -10.3846 0
-17.3077 -10.3846 0
-13.8462 -10.3846 0
-10.3846 -10.3846 0
-6.92308 -10.3846 0
-3.46154 -10.3846 0
1.77636e-015 -10.3846 0
3.46154 -10.3846 0
6.92308 -10.3846 0
10.3846 -10.3846 0
13.8462 -10.3846 0
17.3077 -10.3846 0
20.7692 -10.3846 0
24.2308 -10.3846 0
27.6923 -10.3846 0
31.1538 -10.3846 0
34.6154 -10.3846 0
38.0769 -10.3846 0
45 -10.3846 0
-45 -6.92308 0
-41.5385 -6.92308 0
-38.0769 -6.92308 0
-34.6154 -6.92308 0
-31.1538 -6.92308 0
-27.6923 -6.92308 0
-24.2308 -6.92308 0
-20.7692 -6.92308 0
-17.3077 -6.92308 0
-13.8462 -6.92308 0
-10.3846 -6.92308 0
-6.92308 -6.92308 0
-3.46154 -6.92308 0
1.77636e-015 -6.92308 0
3.46154 -6.92308 0
6.92308 -6.92308 0
10.3846 -6.92308 0
13.8462 -6.92308 0
17.3077 -6.92308 0
20.7692 -6.92308 0
24.2308 -6.92308 0
27.6923 -6.92308 0
31.1538 -6.92308 0
34.6154 -6.92308 0
38.0769 -6.92308 0
45 -6.92308 0
-45 -3.46154 0
-41.5385 -3.46154 0
-38.0769 -3.46154 0
-34.6154 -3.46154 0
-31.1538 -3.46154 0
-27.6923 -3.46154 0
-24.2308 -3.46154 0
-20.7692 -3.46154 0
-17.3077 -3.46154 0
-13.8462 -3.46154 0
-10.3846 -3.46154 0
-6.92308 -3.46154 0
-3.46154 -3.46154 0
1.77636e-015 -3.46154 0
3.46154 -3.46154 0
6.92308 -3.46154 0
10.3846 -3.46154 0
13.8462 -3.46154 0
17.3077 -3.46154 0
20.7692 -3.46154 0
24.2308 -3.46154 0
27.6923 -3.46154 0
31.1538 -3.46154 0
34.6154 -3.46154 0
38.0769 -3.46154 0
45 -3.46154 0
-45 1.77636e-015 0
-41.5385 1.77636e-015 0
-38.0769 1.77636e-015 0
-34.6154 1.77636e-015 0
-31.1538 1.77636e-015 0
-27.6923 1.77636e-015 0
-24.2308 1.77636e-015 0
-20.7692 1.77636e-015 0
-17.3077 1.77636e-015 0
-13.8462 1.77636e-015 0
-10.3846 1.77636e-015 0
-6.92308 1.77636e-015 0
-3.46154 1.77636e-015 0
1.77636e-015 1.77636e-015 0
3.46154 1.77636e-015 0
6.92308 1.77636e-015 0
10.3846 1.77636e-015 0
13.8462 1.77636e-015 0
17.3077 1.77636e-015 0
20.7692 1.77636e-015 0
24.2308 1.77636e-015 0
27.6923 1.77636e-015 0
31.1538 1.77636e-015 0
34.6154 1.77636e-015 0
38.0769 1.77636e-015 0
45 1.77636e-015 0
-45 3.46154 0
-41.5385 3.46154 0
-38.0769 3.46154 0
-34.6154 3.46154 0
-31.1538 3.46154 0
-27.6923 3.46154 0
-24.2308 3.46154 0
-20.7692 3.46154 0
-17.3077 3.46154 0
-13.8462 3.46154 0
-10.3846 3.46154 0
-6.92308 3.46154 0
-3.46154 3.46154 0
1.77636e-015 3.46154 0
3.46154 3.46154 0
6.92308 3.46154 0
10.3846 3.46154 0
13.8462 3.46154 0
17.3077 3.46154 0
20.7692 3.46154 0
24.2308 3.46154 0
27.6923 3.46154 0
31.1538 3.46154 0
34.6154 3.46154 0
38.0769 3.46154 0
45 3.46154 0
-45 6.92308 0
-41.5385 6.92308 0
-38.0769 6.92308 0
-34.6154 6.92308 0
-31.1538 6.92308 0
-27.6923 6.92308 0
-24.2308 6.92308 0
-20.7692 6.92308 0
-17.3077 6.92308 0
-13.8462 6.92308 0
-10.3846 6.92308 0
-6.92308 6.92308 0
-3.46154 6.92308 0
1.77636e-015 6.92308 0
3.46154 6.92308 0
6.92308 6.92308 0
10.3846 6.92308 0
13.8462 6.92308 0
17.3077 6.92308 0
20.7692 6.92308 0
24.2308 6.92308 0
27.6923 6.92308 0
31.1538 6.92308 0
34.6154 6.92308 0
38.0769 6.92308 0
45 6.92308 0
-45 10.3846 0
-41.5385 10.3846 0
-38.0769 10.3846 0
-34.6154 10.3846 0
-31.1538 10.3846 0
-27.6923 10.3846 0
-24.2308 10.3846 0
-20.7692 10.3846 0
-17.3077 10.3846 0
-13.8462 10.3846 0
-10.3846 10.3846 0
-6.92308 10.3846 0
-3.46154 10.3846 0
1.77636e-015 10.3846 0
3.46154 10.3846 0
6.92308 10.3846 0
10.3846 10.3846 0
13.8462 10.3846 0
17.3077 10.3846 0
20.7692 10.3846 0
24.2308 10.3846 0
27.6923 10.3846 0
31.1538 10.3846 0
34.6154 10.3846 0
38.0769 10.3846 0
45 10.3846 0
-45 13.8462 0
-41.5385 13.8462 0
-38.0769 13.8462 0
-34.6154 13.8462 0
-31.1538 13.8462 0
-27.6923 13.8462 0
-24.2308 13.8462 0
-20.7692 13.8462 0
-17.3077 13.8462 0
-13.8462 13.8462 0
-10.3846 13.8462 0
-6.92308 13.8462 0
-3.46154 13.8462 0
1.77636e-015 13.8462 0
3.46154 13.8462 0
6.92308 13.8462 0
10.3846 13.8462 0
13.8462 13.8462 0
17.3077 13.8462 0
20.7692 13.8462 0
24.2308 13.8462 0
27.6923 13.8462 0
31.1538 13.8462 0
34.6154 13.8462 0
38.0769 13.8462 0
45 13.8462 0
-45 17.3077 0
-41.5385 17.3077 0
-38.0769 17.3077 0
-34.6154 17.3077 0
-31.1538 17.3077 0
-27.6923 17.3077 0
-24.2308 17.3077 0
-20.7692 17.3077 0
-17.3077 17.3077 0
-13.8462 17.3077 0
-10.3846 17.3077 0
-6.92308 17.3077 0
-3.46154 17.3077 0
1.77636e-015 17.3077 0
3.46154 17.3077 0
6.92308 17.3077 0
10.3846 17.3077 0
13.8462 17.3077 0
17.3077 17.3077 0
20.7692 17.3077 0
24.2308 17.3077 0
27.6923 17.3077 0
31.1538 17.3077 0
34.6154 17.3077 0
38.0769 17.3077 0
45 17.3077 0
-45 20.7692 0
-41.5385 20.7692 0
-38.0769 20.7692 0
-34.6154 20.7692 0
-31.1538 20.7692 0
-27.6923 20.7692 0
-24.2308 20.7692 0
-20.7692 20.7692 0
-17.3077 20.7692 0
-13.8462 20.7692 0
-10.3846 20.7692 0
-6.92308 20.7692 0
-3.46154 20.7692 0
1.77636e-015 20.7692 0
3.46154 20.7692 0
6.92308 20.7692 0
10.3846 20.7692 0
13.8462 20.7692 0
17.3077 20.7692 0
20.7692 20.7692 0
24.2308 20.7692 0
27.6923 20.7692 0
31.1538 20.7692 0
34.6154 20.7692 0
38.0769 20.7692 0
45 20.7692 0
-45 24.2308 0
-41.5385 24.2308 0
-38.0769 24.2308 0
-34.6154 24.2308 0
-31.1538 24.2308 0
-27.6923 24.2308 0
-24.2308 24.2308 0
-20.7692 24.2308 0
-17.3077 24.2308 0
-13.8462 24.2308 0
-10.3846 24.2308 0
-6.92308 24.2308 0
-3.46154 24.2308 0
1.77636e-015 24.2308 0
3.46154 24.2308 0
6.92308 24.2308 0
10.3846 24.2308 0
13.8462 24.2308 0
17.3077 24.2308 0
20.7692 24.2308 0
24.2308 24.2308 0
27.6923 24.2308 0
31.1538 24.2308 0
34.6154 24.2308 0
38.0769 24.2308 0
45 24.2308 0
-45 27.6923 0
-41.5385 27.6923 0
-38.0769 27.6923 0
-34.6154 27.6923 0
-31.1538 27.6923 0
-27.6923 27.6923 0
-24.2308 27.6923 0
-20.7692 27.6923 0
-17.3077 27.6923 0
-13.8462 27.6923 0
-10.3846 27.6923 0
-6.92308 27.6923 0
-3.46154 27.6923 0
1.77636e-015 27.6923 0
3.46154 27.6923 0
6.92308 27.6923 0
10.3846 27.6923 0
13.8462 27.6923 0
17.3077 27.6923 0
20.7692 27.6923 0
24.2308 27.6923 0
27.6923 27.6923 0
31.1538 27.6923 0
34.6154 27.6923 0
38.0769 27.6923 0
45 27.6923 0
-45 31.1538 0
-41.5385 31.1538 0
-38.0769 31.1538 0
-34.6154 31.1538 0
-31.1538 31.1538 0
-27.6923 31.1538 0
-24.2308 31.1538 0
-20.7692 31.1538 0
-17.3077 31.1538 0
-13.8462 31.1538 0
-10.3846 31.1538 0
-6.92308 31.1538 0
-3.46154 31.1538 0
1.77636e-015 31.1538 0
3.46154 31.1538 0
6.92308 31.1538 0
10.3846 31.1538 0
13.8462 31.1538 0
17.3077 31.1538 0
20.7692 31.1538 0
24.2308 31.1538 0
27.6923 31.1538 0
31.1538 31.1538 0
34.6154 31.1538 0
38.0769 31.1538 0
45 31.1538 0
-45 34.6154 0
-41.5385 34.6154 0
-38.0769 34.6154 0
-34.6154 34.6154 0
-31.1538 34.6154 0
-27.6923 34.6154 0
-24.2308 34.6154 0
-20.7692 34.6154 0
-17.3077 34.6154 0
-13.8462 34.6154 0
-10.3846 34.6154 0
-6.92308 34.6154 0
-3.46154 34.6154 0
1.77636e-015 34.6154 0
3.46154 34.6154 0
6.92308 34.6154 0
10.3846 34.6154 0
13.8462 34.6154 0
17.3077 34.6154 0
20.7692 34.6154 0
24.2308 34.6154 0
27.6923 34.6154 0
31.1538 34.6154 0
34.6154 34.6154 0
38.0769 34.6154 0
45 34.6154 0
-45 38.0769 0
-41.5385 38.0769 0
-38.0769 38.0769 0
-34.6154 38.0769 0
-31.1538 38.0769 0
-27.6923 38.0769 0
-24.2308 38.0769 0
-20.7692 38.0769 0
-17.3077 38.0769 0
-13.8462 38.0769 0
-10.3846 38.0769 0
-6.92308 38.0769 0
-3.46154 38.0769 0
1.77636e-015 38.0769 0
3.46154 38.0769 0
6.92308 38.0769 0
10.3846 38.0769 0
13.8462 38.0769 0
17.3077 38.0769 0
20.7692 38.0769 0
24.2308 38.0769 0
27.6923 38.0769 0
31.1538 38.0769 0
34.6154 38.0769 0
38.0769 38.0769 0
45 38.0769 0
-45 45 0
-41.5385 45 0
-38.0769 45 0
-34.6154 45 0
-31.1538 45 0
-27.6923 45 0
-24.2308 45 0
-20.7692 45 0
-17.3077 45 0
-13.8462 45 0
-10.3846 45 0
-6.92308 45 0
-3.46154 45 0
1.77636e-015 45 0
3.46154 45 0
6.92308 45 0
10.3846 45 0
13.8462 45 0
17.3077 45 0
20.7692 45 0
24.2308 45 0
27.6923 45 0
31.1538 45 0
34.6154 45 0
38.0769 45 0
45 45 0

POINT_DATA 676
SCALARS h double 1
LOOkUP_TABLE default
2.5452e-005
3.68504e-005
4.1497e-005
4.0789e-005
4.27133e-005
2.9289e-005
2.82719e-005
6.27231e-005
9.19494e-005
6.78184e-005
1.39289e-005
5.24776e-005
0.00053171
0.00136195
0.000540274
5.68157e-005
9.35383e-006
4.87424e-005
8.9524e-005
8.07473e-005
2.55495e-005
1.52763e-005
4.89602e-005
3.94594e-005
2.77358e-005
2.5452e-005
3.73147e-005
5.4015e-005
6.08133e-005
5.97691e-005
6.25868e-005
4.29035e-005
4.14456e-005
9.19752e-005
0.000134743
9.92586e-005
2.03884e-005
7.66583e-005
0.000776807
0.0019898
0.000789346
8.29971e-005
1.36976e-005
7.13444e-005
0.000131128
0.000118363
3.74702e-005
2.23948e-005
7.17397e-005
5.78236e-005
4.0653e-005
3.73147e-005
4.19849e-005
6.07732e-005
6.84154e-005
6.72365e-005
7.03948e-005
4.8236e-005
4.65407e-005
0.000103239
0.000150995
0.000111086
2.27904e-005
8.61586e-005
0.000872971
0.00223617
0.000887092
9.32802e-005
1.53107e-005
7.98024e-005
0.000146654
0.000132442
4.19985e-005
2.51797e-005
8.06536e-005
6.50462e-005
4.57346e-005
4.19849e-005
4.1258e-005
5.97218e-005
6.72301e-005
6.60654e-005
6.92518e-005
4.78772e-005
4.67905e-005
0.000111757
0.000163898
0.000117384
2.43078e-005
8.43728e-005
0.000857363
0.00219668
0.000871295
9.14125e-005
1.6535e-005
8.4702e-005
0.000156686
0.000141394
4.48799e-005
2.53898e-005
7.99431e-005
6.39482e-005
4.49377e-005
4.1258e-005
4.32504e-005
6.26049e-005
7.04633e-005
6.93176e-005
7.42839e-005
5.63718e-005
4.93806e-005
2.45304e-005
3.44901e-005
8.06528e-005
1.83695e-005
8.92226e-005
0.00089533
0.00229154
0.000910273
9.69065e-005
1.16903e-005
5.91476e-005
0.00010431
9.88179e-005
2.35465e-005
3.8743e-005
8.80416e-005
6.67047e-005
4.71152e-005
4.32504e-005
2.88967e-005
4.18218e-005
4.7056e-005
4.67297e-005
5.51026e-005
3.45606e-005
5.11752e-006
0.000409832
0.000512377
1.51538e-005
-1.3376e-006
6.44681e-005
0.000611752
0.00155789
0.000612024
5.28469e-005
2.01013e-005
9.05616e-005
1.05898e-005
1.45392e-005
3.51008e-005
1.46307e-005
5.12634e-005
4.45324e-005
3.15395e-005
2.88967e-005
3.13475e-005
4.53995e-005
5.09948e-005
5.18074e-005
5.33838e-005
6.12256e-006
0.00122242
0.00598225
0.00768616
0.00450791
0.00208159
0.000471024
0.00100177
0.00244576
0.00119613
0.000775032
0.00199208
0.0045316
0.00743442
0.00554809
0.0011328
7.93297e-006
5.51792e-005
5.00937e-005
3.40923e-005
3.13475e-005
7.43045e-005
0.000107624
0.000120586
0.000126768
6.21864e-005
0.00052851
0.00571736
0.0265405
0.0338926
0.0203186
0.00931016
0.00308724
0.00369921
0.00758402
0.00410926
0.00356559
0.00912808
0.0205697
0.0335931
0.0250473
0.00492092
2.76869e-005
0.000156385
0.000122612
8.04969e-005
7.43045e-005
0.000102115
0.000147834
0.000165525
0.000174007
0.000131861
2.05671e-005
0.00669283
0.0318784
0.0403894
0.0240959
0.0110894
0.00339405
0.00441025
0.00930683
0.00454277
0.00374613
0.0109578
0.0243629
0.0400386
0.0300742
0.00581768
4.27581e-005
0.000229596
0.000170143
0.00011049
0.000102115
5.24447e-005
7.58481e-005
8.52092e-005
9.18961e-005
3.66999e-005
1.24923e-005
0.00385985
0.0189168
0.0236127
0.0139237
0.00647082
0.00246258
0.00181203
0.00282864
0.00160308
0.00214635
0.00632908
0.0140614
0.0233092
0.0177899
0.00332308
1.86942e-005
0.000116623
8.68795e-005
5.67391e-005
5.24447e-005
3.88115e-005
5.61744e-005
6.31198e-005
6.55554e-005
5.38905e-005
8.22244e-006
0.00160016
0.00809848
0.00997737
0.00597983
0.00280289
0.000791665
0.000468333
0.00037283
0.000196133
0.000511075
0.00253799
0.00619989
0.0103323
0.0078555
0.00141136
1.57578e-005
8.4789e-005
6.39374e-005
4.20589e-005
3.88115e-005
1.06676e-005
1.54485e-005
1.73491e-005
1.81704e-005
1.56061e-005
2.11019e-006
0.00055582
0.00295413
0.00367152
0.00232487
0.000496474
0.000299173
-0.000620677
0.00864478
0.00357358
5.73615e-005
0.00127178
0.00333556
0.00471016
0.00307923
0.000510064
4.36021e-006
2.41969e-005
1.79945e-005
1.15468e-005
1.06676e-005
9.43265e-006
1.36424e-005
1.53765e-005
1.45821e-005
1.71307e-005
1.47276e-005
4.04387e-005
0.000843285
0.000322008
0.00035915
0.00165048
0.0245285
0.197516
0.470439
0.200379
0.0239296
0.00055581
0.000654513
0.00131156
0.000751728
4.74775e-005
7.0118e-006
1.62851e-005
1.37355e-005
1.03137e-005
9.43265e-006
0.000167565
0.000242292
0.000272611
0.000267614
0.000280269
0.000156109
0.000658469
0.00308167
0.00414604
0.00118456
0.00834302
0.321127
2.69425
6.48619
2.70117
0.31795
0.000904625
0.00105518
0.00381607
0.00279682
0.000556762
6.74202e-005
0.000318976
0.000258564
0.000182475
0.000167565
0.000564018
0.000815133
0.000916893
0.000900681
0.000941315
0.000504952
0.00239266
0.010181
0.0146636
0.00301775
0.0284709
1.31791
11.3517
27.7681
11.3736
1.30618
0.00252493
0.0034457
0.0122033
0.0094345
0.00205416
0.000224473
0.00107737
0.000871061
0.000614066
0.000564018
0.000460076
0.00066416
0.000746776
0.000732997
0.00076814
0.000408378
0.00264468
0.0115168
0.0158154
0.00405695
0.0107588
1.61983
15.1694
39.4421
15.207
1.62612
0.0117513
0.00450074
0.0146657
0.0109617
0.00229875
0.00021577
0.000884463
0.000709487
0.000500932
0.000460076
4.19774e-005
5.91254e-005
6.62169e-005
6.25823e-005
6.05437e-005
2.15564e-005
0.00265514
0.0123926
0.0160655
0.0077281
0.000755651
0.327694
3.11815
8.23899
3.12521
0.322807
0.00101395
0.00959901
0.0156353
0.0117652
0.00232799
3.00662e-005
7.73645e-005
6.03284e-005
4.66234e-005
4.19774e-005
5.55418e-005
8.03594e-005
8.99367e-005
9.55323e-005
6.61737e-005
1.34532e-005
0.00382384
0.0181645
0.023014
0.0148512
0.00354824
0.0045993
0.0980234
0.33407
0.102545
0.00218975
0.00754889
0.0150538
0.0229236
0.0171659
0.00331907
1.59335e-005
0.000116296
9.17685e-005
6.01086e-005
5.55418e-005
7.33903e-005
0.000106294
0.000119075
0.000127564
5.76123e-005
0.000312017
0.00518052
0.0242097
0.0306655
0.0182306
0.00884185
0.00308064
0.000639198
0.00156527
0.000780969
0.00339319
0.00854001
0.0184173
0.0303891
0.0227881
0.00437703
3.03615e-005
0.000169495
0.000122386
7.9404e-005
7.33903e-005
6.04151e-005
8.75644e-005
9.84714e-005
0.000107763
2.05227e-005
0.000763968
0.00375218
0.0165575
0.020947
0.0125134
0.00568522
0.00217352
0.00265095
0.00447479
0.00249892
0.00218789
0.00559525
0.0126666
0.0207403
0.0155277
0.00296138
3.33016e-005
0.000151728
0.000101641
6.54026e-005
6.04151e-005
1.9006e-005
2.75567e-005
3.09304e-005
3.17941e-005
3.64085e-005
4.04722e-006
0.000459641
0.00210784
0.00275291
0.00164799
0.000775647
7.45579e-005
0.000497785
0.00126888
0.000559033
0.000263635
0.000741797
0.00167463
0.00275587
0.00200931
0.000407895
1.17029e-005
4.6501e-005
3.16532e-005
2.06255e-005
1.9006e-005
1.64211e-005
2.37699e-005
2.67764e-005
2.62179e-005
3.12118e-005
3.15908e-005
7.18164e-006
1.80613e-005
3.16286e-005
2.67208e-005
6.81552e-006
4.14215e-005
0.000345817
0.000875501
0.000352674
3.73148e-005
5.68958e-006
9.19264e-006
2.61173e-005
3.8237e-005
1.76328e-005
2.42958e-005
2.3253e-005
2.4438e-005
1.7999e-005
1.64211e-005
4.98589e-005
7.21713e-005
8.12193e-005
8.00867e-005
8.57249e-005
5.37053e-005
5.07725e-005
0.000123078
0.000190936
0.000146496
3.16762e-005
0.000103173
0.00103786
0.00265997
0.00105887
0.000113821
1.69134e-005
8.85984e-005
0.000182237
0.000185512
6.25094e-005
2.48873e-005
9.36602e-005
7.71192e-005
5.43281e-005
4.98589e-005
3.9139e-005
5.66648e-005
6.37903e-005
6.27189e-005
6.54256e-005
4.41395e-005
4.39318e-005
9.96781e-005
0.000147249
0.000108878
2.27967e-005
8.02552e-005
0.000814301
0.00208631
0.000827737
8.70314e-005
1.48661e-005
7.70969e-005
0.000142215
0.000129337
4.12754e-005
2.2316e-005
7.51691e-005
6.06763e-005
4.26312e-005
3.9139e-005
2.73882e-005
3.96706e-005
4.4669e-005
4.38976e-005
4.59779e-005
3.15726e-005
3.04152e-005
6.73172e-005
9.85602e-005
7.26349e-005
1.48964e-005
5.64876e-005
0.00057221
0.00146563
0.00058138
6.11352e-005
1.00297e-005
5.22913e-005
9.59783e-005
8.65405e-005
2.7405e-005
1.6575e-005
5.27154e-005
4.24629e-005
2.9835e-005
2.73882e-005
2.5452e-005
3.68504e-005
4.1497e-005
4.0789e-005
4.27133e-005
2.9289e-005
2.82719e-005
6.27231e-005
9.19494e-005
6.78184e-005
1.39289e-005
5.24776e-005
0.00053171
0.00136195
0.000540274
5.68157e-005
9.35383e-006
4.87424e-005
8.9524e-005
8.07473e-005
2.55495e-005
1.52763e-005
4.89602e-005
3.94594e-005
2.77358e-005
2.5452e-005

VECTORS u double
2.08295 2.00317 0.0
2.64768 2.00249 0.0
3.07527 2.00216 0.0
3.53374 2.00207 0.0
4.29016 2.00202 0.0
4.14566 2.00184 0.0
6.63542 2.00282 0.0
7.77539 2.00275 0.0
7.26336 2.00171 0.0
7.08023 2.00017 0.0
-10.5544 2.00341 0.0
26.9327 1.99636 0.0
21.6389 1.99587 0.0
-0.233288 1.99587 0.0
-22.2618 1.99598 0.0
-28.2323 1.9964 0.0
15.9384 2.00406 0.0
-5.01417 1.99998 0.0
-5.70287 2.00087 0.0
-6.42212 2.00239 0.0
-6.24628 2.00356 0.0
1.32913 2.00332 0.0
-2.37151 2.00209 0.0
-1.96226 2.00226 0.0
-1.86834 2.00299 0.0
2.08295 2.00317 0.0
2.08258 2.48847 0.0
2.6467 2.48793 0.0
3.07388 2.48762 0.0
3.53213 2.48752 0.0
4.28838 2.48745 0.0
4.14265 2.48715 0.0
6.6347 2.4882 0.0
7.77183 2.48846 0.0
7.25737 2.48751 0.0
7.07689 2.48568 0.0
-10.5408 2.48668 0.0
26.9272 2.48394 0.0
21.6353 2.48394 0.0
-0.233163 2.48418 0.0
-22.2582 2.48406 0.0
-28.227 2.48412 0.0
15.9218 2.48721 0.0
-5.01308 2.48548 0.0
-5.69794 2.48677 0.0
-6.41911 2.48826 0.0
-6.24514 2.48907 0.0
1.32985 2.48838 0.0
-2.37067 2.48747 0.0
-1.96162 2.48766 0.0
-1.86773 2.48825 0.0
2.08258 2.48847 0.0
2.08243 2.86612 0.0
2.64619 2.8655 0.0
3.07313 2.86514 0.0
3.53125 2.86501 0.0
4.28743 2.86488 0.0
4.14307 2.86427 0.0
6.63307 2.86443 0.0
7.7696 2.86467 0.0
7.25449 2.8626 0.0
7.07055 2.85956 0.0
-10.5823 2.8573 0.0
26.9328 2.86093 0.0
21.6344 2.86133 0.0
-0.232766 2.86169 0.0
-22.2567 2.86148 0.0
-28.2293 2.86135 0.0
15.9593 2.8575 0.0
-5.00799 2.85897 0.0
-5.69567 2.86045 0.0
-6.41776 2.86235 0.0
-6.24247 2.86438 0.0
1.32354 2.86623 0.0
-2.37103 2.8647 0.0
-1.96131 2.86518 0.0
-1.86749 2.86586 0.0
2.08243 2.86612 0.0
2.08241 3.26555 0.0
2.64601 3.26485 0.0
3.07284 3.26444 0.0
3.53086 3.26425 0.0
4.28718 3.26518 0.0
4.12598 3.27662 0.0
6.64231 3.29447 0.0
7.82767 3.11766 0.0
7.26315 3.15896 0.0
7.12734 3.28322 0.0
-9.95327 3.32306 0.0
26.8265 3.26456 0.0
21.6284 3.26051 0.0
-0.232447 3.26061 0.0
-22.2511 3.26052 0.0
-28.1537 3.26238 0.0
15.3313 3.32638 0.0
-5.0554 3.30494 0.0
-5.68454 3.30584 0.0
-6.40914 3.30653 0.0
-6.24462 3.28133 0.0
1.41962 3.28592 0.0
-2.35831 3.27245 0.0
-1.96195 3.26428 0.0
-1.86748 3.26525 0.0
2.08241 3.26555 0.0
2.08236 3.93115 0.0
2.6459 3.93033 0.0
3.07262 3.92991 0.0
3.53172 3.92985 0.0
4.27372 3.91508 0.0
3.9788 3.71293 0.0
6.28673 3.64674 0.0
9.23759 -3.47306 0.0
7.51236 -3.78093 0.0
6.14869 2.54368 0.0
-13.6085 2.13416 0.0
27.2316 3.87707 0.0
21.6475 3.92378 0.0
-0.238687 3.92664 0.0
-22.2814 3.92442 0.0
-28.4626 3.89461 0.0
18.9361 1.74857 0.0
-3.86638 2.8209 0.0
-5.11264 2.95775 0.0
-5.99586 2.91614 0.0
-4.78291 2.03574 0.0
0.2754 3.41695 0.0
-2.40292 3.80782 0.0
-1.95836 3.93319 0.0
-1.86744 3.93095 0.0
2.08236 3.93115 0.0
2.08201 3.65261 0.0
2.64566 3.65123 0.0
3.07202 3.6528 0.0
3.54522 3.63632 0.0
4.07278 3.46347 0.0
2.82372 2.30771 0.0
3.33624 -7.29505 0.0
7.22477 6.0949 0.0
7.16813 5.92406 0.0
-10.9051 -4.51387 0.0
107.894 25.0731 0.0
29.6708 3.49862 0.0
22.1229 3.79432 0.0
0.094347 3.7931 0.0
-22.0097 3.71267 0.0
-29.7125 2.62569 0.0
5.51491 7.22825 0.0
-7.33468 5.37804 0.0
7.88157 -10.0638 0.0
-2.84514 -6.13872 0.0
-6.82284 4.30626 0.0
2.96842 -0.95664 0.0
-2.22687 2.32483 0.0
-1.95374 3.66471 0.0
-1.86724 3.65581 0.0
2.08201 3.65261 0.0
2.0831 6.06247 0.0
2.64669 6.06234 0.0
3.0718 6.06112 0.0
3.56406 6.07257 0.0
3.71984 5.81521 0.0
-7.71991 3.98763 0.0
7.41013 6.5324 0.0
7.25788 6.54695 0.0
7.35438 6.5281 0.0
8.58206 6.51866 0.0
12.1243 6.50977 0.0
14.5729 6.68458 0.0
20.0801 5.66614 0.0
-1.39122 5.55753 0.0
-23.1893 5.82276 0.0
-18.9074 6.5132 0.0
-11.8811 6.50653 0.0
-8.62514 6.51785 0.0
-7.39505 6.53343 0.0
-7.32813 6.54829 0.0
-7.42504 6.51145 0.0
7.08247 5.3189 0.0
-1.99025 5.90756 0.0
-1.97895 6.0973 0.0
-1.86866 6.05959 0.0
2.0831 6.06247 0.0
2.08318 6.33352 0.0
2.64652 6.33165 0.0
3.06975 6.33064 0.0
3.57254 6.33232 0.0
1.91702 6.56556 0.0
6.82078 6.02316 0.0
7.38173 6.04687 0.0
7.25088 6.0961 0.0
7.36818 6.07397 0.0
8.61026 6.04839 0.0
12.1432 6.02887 0.0
17.4926 6.12556 0.0
20.5689 4.49433 0.0
-1.68926 3.96228 0.0
-23.6603 4.77795 0.0
-18.9443 6.07598 0.0
-11.9535 6.0242 0.0
-8.66541 6.04673 0.0
-7.4278 6.07179 0.0
-7.33439 6.09407 0.0
-7.42142 6.04563 0.0
7.2108 6.59557 0.0
-1.74724 6.3623 0.0
-1.99599 6.32588 0.0
-1.86775 6.3331 0.0
2.08318 6.33352 0.0
2.08226 4.93708 0.0
2.64535 4.93377 0.0
3.06797 4.9319 0.0
3.57904 4.93534 0.0
3.37367 4.75781 0.0
-6.7135 0.869907 0.0
7.3726 5.74325 0.0
7.23768 5.87736 0.0
7.36187 5.84241 0.0
8.6007 5.79177 0.0
12.1497 5.76692 0.0
16.7692 6.73424 0.0
20.6565 1.3462 0.0
-1.03796 -0.151956 0.0
-22.4214 1.98881 0.0
-17.7515 6.3778 0.0
-12.049 5.74456 0.0
-8.65169 5.78881 0.0
-7.42158 5.83675 0.0
-7.32145 5.8745 0.0
-7.40581 5.75277 0.0
7.13915 3.2475 0.0
-1.66923 4.8121 0.0
-1.99742 4.91667 0.0
-1.86558 4.93691 0.0
2.08226 4.93708 0.0
2.08058 5.20229 0.0
2.64333 5.19919 0.0
3.0688 5.19834 0.0
3.45296 5.15473 0.0
1.48691 4.13898 0.0
-7.31958 -4.57698 0.0
7.34949 6.1574 0.0
7.22158 6.33078 0.0
7.35701 6.28479 0.0
8.58985 6.22829 0.0
12.1155 6.12236 0.0
16.9768 5.9737 0.0
18.4914 -3.07588 0.0
-3.56948 -6.77116 0.0
-23.6573 -1.13509 0.0
-16.7086 7.39362 0.0
-12.0022 6.18029 0.0
-8.66254 6.21691 0.0
-7.42455 6.27458 0.0
-7.30622 6.32539 0.0
-7.38539 6.16895 0.0
7.15805 3.29134 0.0
-1.72009 5.10552 0.0
-1.99516 5.18826 0.0
-1.86266 5.20172 0.0
2.08058 5.20229 0.0
2.08272 4.20534 0.0
2.64576 4.20635 0.0
3.07156 4.20457 0.0
3.52997 4.25529 0.0
3.2161 2.56906 0.0
-7.05803 -14.7723 0.0
7.33567 7.44731 0.0
7.20878 7.62494 0.0
7.35347 7.57241 0.0
8.63372 7.52716 0.0
10.354 5.20473 0.0
6.13353 -7.4876 0.0
0.0189521 -14.8746 0.0
-20.6277 -34.9696 0.0
-27.668 -31.9271 0.0
-0.463311 1.27196 0.0
-8.0072 6.69898 0.0
-7.80266 7.50593 0.0
-7.16493 7.60809 0.0
-7.23277 7.65959 0.0
-7.34534 7.49534 0.0
6.93316 -1.28156 0.0
-1.64858 4.24359 0.0
-1.99919 4.28333 0.0
-1.86882 4.1986 0.0
2.08272 4.20534 0.0
2.08402 -10.5117 0.0
2.64703 -10.5023 0.0
3.07256 -10.519 0.0
3.54909 -10.0306 0.0
2.96324 -13.2752 0.0
-7.19421 -35.4106 0.0
7.32632 9.46021 0.0
7.1958 10.0091 0.0
7.49482 9.77628 0.0
6.43827 7.64121 0.0
-13.2737 -13.2451 0.0
25.4759 16.4506 0.0
58.1454 48.4163 0.0
1.72034 38.7188 0.0
-20.824 39.394 0.0
215.788 -5.44407 0.0
40.7595 7.91299 0.0
17.7945 8.4036 0.0
-3.43276 9.8393 0.0
-7.0691 10.0962 0.0
-7.35741 9.37555 0.0
7.08639 -25.2822 0.0
-1.3398 -9.36326 0.0
-2.01205 -9.80307 0.0
-1.8733 -10.5642 0.0
2.08402 -10.5117 0.0
2.08714 28.5296 0.0
2.65111 28.5146 0.0
3.07851 28.5353 0.0
3.54576 27.9013 0.0
4.11639 30.0062 0.0
3.72311 40.3729 0.0
8.42927 -7.35856 0.0
7.02283 14.4499 0.0
15.0862 -3.41549 0.0
-14.398 -12.5088 0.0
28.151 33.8152 0.0
30.1103 38.6588 0.0
23.1302 39.5421 0.0
0.394307 40.0172 0.0
-22.457 39.5602 0.0
-29.0776 38.7692 0.0
25.286 17.1995 0.0
11.2346 10.2204 0.0
-5.30156 13.3177 0.0
-7.67644 12.4311 0.0
-9.59956 -6.35903 0.0
4.88035 44.8846 0.0
-1.94253 26.7922 0.0
-1.98746 27.5213 0.0
-1.87489 28.5925 0.0
2.08714 28.5296 0.0
2.08113 33.6696 0.0
2.64434 33.661 0.0
3.07059 33.6577 0.0
3.52867 33.6424 0.0
4.27866 33.6875 0.0
3.89077 37.4293 0.0
6.73891 20.859 0.0
5.91641 17.9654 0.0
1.15438 17.8588 0.0
-23.1501 2.41778 0.0
29.6711 36.3048 0.0
29.5102 35.9697 0.0
22.6286 36.8559 0.0
0.0782037 37.5875 0.0
-22.5075 36.8508 0.0
-29.3409 35.7973 0.0
-9.24494 -115.65 0.0
11.2765 21.1905 0.0
-3.41137 17.084 0.0
-5.91278 18.6159 0.0
-6.39291 20.7113 0.0
3.12776 41.4358 0.0
-2.33274 33.6994 0.0
-1.95707 33.6303 0.0
-1.86347 33.668 0.0
2.08113 33.6696 0.0