# vtk DataFile Version 2.0
Particulate Flow Equations Solution
ASCII
DATASET STRUCTURED_GRID
DIMENSIONS 26 26 1
POINTS 676 double
-10 -10 0
-9.23077 -10 0
-8.46154 -10 0
-7.69231 -10 0
-6.92308 -10 0
-6.15385 -10 0
-5.38462 -10 0
-4.61538 -10 0
-3.84615 -10 0
-3.07692 -10 0
-2.30769 -10 0
-1.53846 -10 0
-0.769231 -10 0
5.55112e-016 -10 0
0.769231 -10 0
1.53846 -10 0
2.30769 -10 0
3.07692 -10 0
3.84615 -10 0
4.61538 -10 0
5.38462 -10 0
6.15385 -10 0
6.92308 -10 0
7.69231 -10 0
8.46154 -10 0
10 -10 0
-10 -9.23077 0
-9.23077 -9.23077 0
-8.46154 -9.23077 0
-7.69231 -9.23077 0
-6.92308 -9.23077 0
-6.15385 -9.23077 0
-5.38462 -9.23077 0
-4.61538 -9.23077 0
-3.84615 -9.23077 0
-3.07692 -9.23077 0
-2.30769 -9.23077 0
-1.53846 -9.23077 0
-0.769231 -9.23077 0
5.55112e-016 -9.23077 0
0.769231 -9.23077 0
1.53846 -9.23077 0
2.30769 -9.23077 0
3.07692 -9.23077 0
3.84615 -9.23077 0
4.61538 -9.23077 0
5.38462 -9.23077 0
6.15385 -9.23077 0
6.92308 -9.23077 0
7.69231 -9.23077 0
8.46154 -9.23077 0
10 -9.23077 0
-10 -8.46154 0
-9.23077 -8.46154 0
-8.46154 -8.46154 0
-7.69231 -8.46154 0
-6.92308 -8.46154 0
-6.15385 -8.46154 0
-5.38462 -8.46154 0
-4.61538 -8.46154 0
-3.84615 -8.46154 0
-3.07692 -8.46154 0
-2.30769 -8.46154 0
-1.53846 -8.46154 0
-0.769231 -8.46154 0
5.55112e-016 -8.46154 0
0.769231 -8.46154 0
1.53846 -8.46154 0
2.30769 -8.46154 0
3.07692 -8.46154 0
3.84615 -8.46154 0
4.61538 -8.46154 0
5.38462 -8.46154 0
6.15385 -8.46154 0
6.92308 -8.46154 0
7.69231 -8.46154 0
8.46154 -8.46154 0
10 -8.46154 0
-10 -7.69231 0
-9.23077 -7.69231 0
-8.46154 -7.69231 0
-7.69231 -7.69231 0
-6.92308 -7.69231 0
-6.15385 -7.69231 0
-5.38462 -7.69231 0
-4.61538 -7.69231 0
-3.84615 -7.69231 0
-3.07692 -7.69231 0
-2.30769 -7.69231 0
-1.53846 -7.69231 0
-0.769231 -7.69231 0
5.55112e-016 -7.69231 0
0.769231 -7.69231 0
1.53846 -7.69231 0
2.30769 -7.69231 0
3.07692 -7.69231 0
3.84615 -7.69231 0
4.61538 -7.69231 0
5.38462 -7.69231 0
6.15385 -7.69231 0
6.92308 -7.69231 0
7.69231 -7.69231 0
8.46154 -7.69231 0
10 -7.69231 0
-10 -6.92308 0
-9.23077 -6.92308 0
-8.46154 -6.92308 0
-7.69231 -6.92308 0
-6.92308 -6.92308 0
-6.15385 -6.92308 0
-5.38462 -6.92308 0
-4.61538 -6.92308 0
-3.84615 -6.92308 0
-3.07692 -6.92308 0
-2.30769 -6.92308 0
-1.53846 -6.92308 0
-0.769231 -6.92308 0
5.55112e-016 -6.92308 0
0.769231 -6.92308 0
1.53846 -6.92308 0
2.30769 -6.92308 0
3.07692 -6.92308 0
3.84615 -6.92308 0
4.61538 -6.92308 0
5.38462 -6.92308 0
6.15385 -6.92308 0
6.92308 -6.92308 0
7.69231 -6.92308 0
8.46154 -6.92308 0
10 -6.92308 0
-10 -6.15385 0
-9.23077 -6.15385 0
-8.46154 -6.15385 0
-7.69231 -6.15385 0
-6.92308 -6.15385 0
-6.15385 -6.15385 0
-5.38462 -6.15385 0
-4.61538 -6.15385 0
-3.84615 -6.15385 0
-3.07692 -6.15385 0
-2.30769 -6.15385 0
-1.53846 -6.15385 0
-0.769231 -6.15385 0
5.55112e-016 -6.15385 0
0.769231 -6.15385 0
1.53846 -6.15385 0
2.30769 -6.15385 0
3.07692 -6.15385 0
3.84615 -6.15385 0
4.61538 -6.15385 0
5.38462 -6.15385 0
6.15385 -6.15385 0
6.92308 -6.15385 0
7.69231 -6.15385 0
8.46154 -6.15385 0
10 -6.15385 0
-10 -5.38462 0
-9.23077 -5.38462 0
-8.46154 -5.38462 0
-7.69231 -5.38462 0
-6.92308 -5.38462 0
-6.15385 -5.38462 0
-5.38462 -5.38462 0
-4.61538 -5.38462 0
-3.84615 -5.38462 0
-3.07692 -5.38462 0
-2.30769 -5.38462 0
-1.53846 -5.38462 0
-0.769231 -5.38462 0
5.55112e-016 -5.38462 0
0.769231 -5.38462 0
1.53846 -5.38462 0
2.30769 -5.38462 0
3.07692 -5.38462 0
3.84615 -5.38462 0
4.61538 -5.38462 0
5.38462 -5.38462 0
6.15385 -5.38462 0
6.92308 -5.38462 0
7.69231 -5.38462 0
8.46154 -5.38462 0
10 -5.38462 0
-10 -4.61538 0
-9.23077 -4.61538 0
-8.46154 -4.61538 0
-7.69231 -4.61538 0
-6.92308 -4.61538 0
-6.15385 -4.61538 0
-5.38462 -4.61538 0
-4.61538 -4.61538 0
-3.84615 -4.61538 0
-3.07692 -4.61538 0
-2.30769 -4.61538 0
-1.53846 -4.61538 0
-0.769231 -4.61538 0
5.55112e-016 -4.61538 0
0.769231 -4.61538 0
1.53846 -4.61538 0
2.30769 -4.61538 0
3.07692 -4.61538 0
3.84615 -4.61538 0
4.61538 -4.61538 0
5.38462 -4.61538 0
6.15385 -4.61538 0
6.92308 -4.61538 0
7.69231 -4.61538 0
8.46154 -4.61538 0
10 -4.61538 0
-10 -3.84615 0
-9.23077 -3.84615 0
-8.46154 -3.84615 0
-7.69231 -3.84615 0
-6.92308 -3.84615 0
-6.15385 -3.84615 0
-5.38462 -3.84615 0
-4.61538 -3.84615 0
-3.84615 -3.84615 0
-3.07692 -3.84615 0
-2.30769 -3.84615 0
-1.53846 -3.84615 0
-0.769231 -3.84615 0
5.55112e-016 -3.84615 0
0.769231 -3.84615 0
1.53846 -3.84615 0
2.30769 -3.84615 0
3.07692 -3.84615 0
3.84615 -3.84615 0
4.61538 -3.84615 0
5.38462 -3.84615 0
6.15385 -3.84615 0
6.92308 -3.84615 0
7.69231 -3.84615 0
8.46154 -3.84615 0
10 -3.84615 0
-10 -3.07692 0
-9.23077 -3.07692 0
-8.46154 -3.07692 0
-7.69231 -3.07692 0
-6.92308 -3.07692 0
-6.15385 -3.07692 0
-5.38462 -3.07692 0
-4.61538 -3.07692 0
-3.84615 -3.07692 0
-3.07692 -3.07692 0
-2.30769 -3.07692 0
-1.53846 -3.07692 0
-0.769231 -3.07692 0
5.55112e-016 -3.07692 0
0.769231 -3.07692 0
1.53846 -3.07692 0
2.30769 -3.07692 0
3.07692 -3.07692 0
3.84615 -3.07692 0
4.61538 -3.07692 0
5.38462 -3.07692 0
6.15385 -3.07692 0
6.92308 -3.07692 0
7.69231 -3.07692 0
8.46154 -3.07692 0
10 -3.07692 0
-10 -2.30769 0
-9.23077 -2.30769 0
-8.46154 -2.30769 0
-7.69231 -2.30769 0
-6.92308 -2.30769 0
-6.15385 -2.30769 0
-5.38462 -2.30769 0
-4.61538 -2.30769 0
-3.84615 -2.30769 0
-3.07692 -2.30769 0
-2.30769 -2.30769 0
-1.53846 -2.30769 0
-0.769231 -2.30769 0
5.55112e-016 -2.30769 0
0.769231 -2.30769 0
1.53846 -2.30769 0
2.30769 -2.30769 0
3.07692 -2.30769 0
3.84615 -2.30769 0
4.61538 -2.30769 0
5.38462 -2.30769 0
6.15385 -2.30769 0
6.92308 -2.30769 0
7.69231 -2.30769 0
8.46154 -2.30769 0
10 -2.30769 0
-10 -1.53846 0
-9.23077 -1.53846 0
-8.46154 -1.53846 0
-7.69231 -1.53846 0
-6.92308 -1.53846 0
-6.15385 -1.53846 0
-5.38462 -1.53846 0
-4.61538 -1.53846 0
-3.84615 -1.53846 0
-3.07692 -1.53846 0
-2.30769 -1.53846 0
-1.53846 -1.53846 0
-0.769231 -1.53846 0
5.55112e-016 -1.53846 0
0.769231 -1.53846 0
1.53846 -1.53846 0
2.30769 -1.53846 0
3.07692 -1.53846 0
3.84615 -1.53846 0
4.61538 -1.53846 0
5.38462 -1.53846 0
6.15385 -1.53846 0
6.92308 -1.53846 0
7.69231 -1.53846 0
8.46154 -1.53846 0
10 -1.53846 0
-10 -0.769231 0
-9.23077 -0.769231 0
-8.46154 -0.769231 0
-7.69231 -0.769231 0
-6.92308 -0.769231 0
-6.15385 -0.769231 0
-5.38462 -0.769231 0
-4.61538 -0.769231 0
-3.84615 -0.769231 0
-3.07692 -0.769231 0
-2.30769 -0.769231 0
-1.53846 -0.769231 0
-0.769231 -0.769231 0
5.55112e-016 -0.769231 0
0.769231 -0.769231 0
1.53846 -0.769231 0
2.30769 -0.769231 0
3.07692 -0.769231 0
3.84615 -0.769231 0
4.61538 -0.769231 0
5.38462 -0.769231 0
6.15385 -0.769231 0
6.92308 -0.769231 0
7.69231 -0.769231 0
8.46154 -0.769231 0
10 -0.769231 0
-10 5.55112e-016 0
-9.23077 5.55112e-016 0
-8.46154 5.55112e-016 0
-7.69231 5.55112e-016 0
-6.92308 5.55112e-016 0
-6.15385 5.55112e-016 0
-5.38462 5.55112e-016 0
-4.61538 5.55112e-016 0
-3.84615 5.55112e-016 0
-3.07692 5.55112e-016 0
-2.30769 5.55112e-016 0
-1.53846 5.55112e-016 0
-0.769231 5.55112e-016 0
5.55112e-016 5.55112e-016 0
0.769231 5.55112e-016 0
1.53846 5.55112e-016 0
2.30769 5.55112e-016 0
3.07692 5.55112e-016 0
3.84615 5.55112e-016 0
4.61538 5.55112e-016 0
5.38462 5.55112e-016 0
6.15385 5.55112e-016 0
6.92308 5.55112e-016 0
7.69231 5.55112e-016 0
8.46154 5.55112e-016 0
10 5.55112e-016 0
-10 0.769231 0
-9.23077 0.769231 0
-8.46154 0.769231 0
-7.69231 0.769231 0
-6.92308 0.769231 0
-6.15385 0.769231 0
-5.38462 0.769231 0
-4.61538 0.769231 0
-3.84615 0.769231 0
-3.07692 0.769231 0
-2.30769 0.769231 0
-1.53846 0.769231 0
-0.769231 0.769231 0
5.55112e-016 0.769231 0
0.769231 0.769231 0
1.53846 0.769231 0
2.30769 0.769231 0
3.07692 0.769231 0
3.84615 0.769231 0
4.61538 0.769231 0
5.38462 0.769231 0
6.15385 0.769231 0
6.92308 0.769231 0
7.69231 0.769231 0
8.46154 0.769231 0
10 0.769231 0
-10 1.53846 0
-9.23077 1.53846 0
-8.46154 1.53846 0
-7.69231 1.53846 0
-6.92308 1.53846 0
-6.15385 1.53846 0
-5.38462 1.53846 0
-4.61538 1.53846 0
-3.84615 1.53846 0
-3.07692 1.53846 0
-2.30769 1.53846 0
-1.53846 1.53846 0
-0.769231 1.53846 0
5.55112e-016 1.53846 0
0.769231 1.53846 0
1.53846 1.53846 0
2.30769 1.53846 0
3.07692 1.53846 0
3.84615 1.53846 0
4.61538 1.53846 0
5.38462 1.53846 0
6.15385 1.53846 0
6.92308 1.53846 0
7.69231 1.53846 0
8.46154 1.53846 0
10 1.53846 0
-10 2.30769 0
-9.23077 2.30769 0
-8.46154 2.30769 0
-7.69231 2.30769 0
-6.92308 2.30769 0
-6.15385 2.30769 0
-5.38462 2.30769 0
-4.61538 2.30769 0
-3.84615 2.30769 0
-3.07692 2.30769 0
-2.30769 2.30769 0
-1.53846 2.30769 0
-0.769231 2.30769 0
5.55112e-016 2.30769 0
0.769231 2.30769 0
1.53846 2.30769 0
2.30769 2.30769 0
3.07692 2.30769 0
3.84615 2.30769 0
4.61538 2.30769 0
5.38462 2.30769 0
6.15385 2.30769 0
6.92308 2.30769 0
7.69231 2.30769 0
8.46154 2.30769 0
10 2.30769 0
-10 3.07692 0
-9.23077 3.07692 0
-8.46154 3.07692 0
-7.69231 3.07692 0
-6.92308 3.07692 0
-6.15385 3.07692 0
-5.38462 3.07692 0
-4.61538 3.07692 0
-3.84615 3.07692 0
-3.07692 3.07692 0
-2.30769 3.07692 0
-1.53846 3.07692 0
-0.769231 3.07692 0
5.55112e-016 3.07692 0
0.769231 3.07692 0
1.53846 3.07692 0
2.30769 3.07692 0
3.07692 3.07692 0
3.84615 3.07692 0
4.61538 3.07692 0
5.38462 3.07692 0
6.15385 3.07692 0
6.92308 3.07692 0
7.69231 3.07692 0
8.46154 3.07692 0
10 3.07692 0
-10 3.84615 0
-9.23077 3.84615 0
-8.46154 3.84615 0
-7.69231 3.84615 0
-6.92308 3.84615 0
-6.15385 3.84615 0
-5.38462 3.84615 0
-4.61538 3.84615 0
-3.84615 3.84615 0
-3.07692 3.84615 0
-2.30769 3.84615 0
-1.53846 3.84615 0
-0.769231 3.84615 0
5.55112e-016 3.84615 0
0.769231 3.84615 0
1.53846 3.84615 0
2.30769 3.84615 0
3.07692 3.84615 0
3.84615 3.84615 0
4.61538 3.84615 0
5.38462 3.84615 0
6.15385 3.84615 0
6.92308 3.84615 0
7.69231 3.84615 0
8.46154 3.84615 0
10 3.84615 0
-10 4.61538 0
-9.23077 4.61538 0
-8.46154 4.61538 0
-7.69231 4.61538 0
-6.92308 4.61538 0
-6.15385 4.61538 0
-5.38462 4.61538 0
-4.61538 4.61538 0
-3.84615 4.61538 0
-3.07692 4.61538 0
-2.30769 4.61538 0
-1.53846 4.61538 0
-0.769231 4.61538 0
5.55112e-016 4.61538 0
0.769231 4.61538 0
1.53846 4.61538 0
2.30769 4.61538 0
3.07692 4.61538 0
3.84615 4.61538 0
4.61538 4.61538 0
5.38462 4.61538 0
6.15385 4.61538 0
6.92308 4.61538 0
7.69231 4.61538 0
8.46154 4.61538 0
10 4.61538 0
-10 5.38462 0
-9.23077 5.38462 0
-8.46154 5.38462 0
-7.69231 5.38462 0
-6.92308 5.38462 0
-6.15385 5.38462 0
-5.38462 5.38462 0
-4.61538 5.38462 0
-3.84615 5.38462 0
-3.07692 5.38462 0
-2.30769 5.38462 0
-1.53846 5.38462 0
-0.769231 5.38462 0
5.55112e-016 5.38462 0
0.769231 5.38462 0
1.53846 5.38462 0
2.30769 5.38462 0
3.07692 5.38462 0
3.84615 5.38462 0
4.61538 5.38462 0
5.38462 5.38462 0
6.15385 5.38462 0
6.92308 5.38462 0
7.69231 5.38462 0
8.46154 5.38462 0
10 5.38462 0
-10 6.15385 0
-9.23077 6.15385 0
-8.46154 6.15385 0
-7.69231 6.15385 0
-6.92308 6.15385 0
-6.15385 6.15385 0
-5.38462 6.15385 0
-4.61538 6.15385 0
-3.84615 6.15385 0
-3.07692 6.15385 0
-2.30769 6.15385 0
-1.53846 6.15385 0
-0.769231 6.15385 0
5.55112e-016 6.15385 0
0.769231 6.15385 0
1.53846 6.15385 0
2.30769 6.15385 0
3.07692 6.15385 0
3.84615 6.15385 0
4.61538 6.15385 0
5.38462 6.15385 0
6.15385 6.15385 0
6.92308 6.15385 0
7.69231 6.15385 0
8.46154 6.15385 0
10 6.15385 0
-10 6.92308 0
-9.23077 6.92308 0
-8.46154 6.92308 0
-7.69231 6.92308 0
-6.92308 6.92308 0
-6.15385 6.92308 0
-5.38462 6.92308 0
-4.61538 6.92308 0
-3.84615 6.92308 0
-3.07692 6.92308 0
-2.30769 6.92308 0
-1.53846 6.92308 0
-0.769231 6.92308 0
5.55112e-016 6.92308 0
0.769231 6.92308 0
1.53846 6.92308 0
2.30769 6.92308 0
3.07692 6.92308 0
3.84615 6.92308 0
4.61538 6.92308 0
5.38462 6.92308 0
6.15385 6.92308 0
6.92308 6.92308 0
7.69231 6.92308 0
8.46154 6.92308 0
10 6.92308 0
-10 7.69231 0
-9.23077 7.69231 0
-8.46154 7.69231 0
-7.69231 7.69231 0
-6.92308 7.69231 0
-6.15385 7.69231 0
-5.38462 7.69231 0
-4.61538 7.69231 0
-3.84615 7.69231 0
-3.07692 7.69231 0
-2.30769 7.69231 0
-1.53846 7.69231 0
-0.769231 7.69231 0
5.55112e-016 7.69231 0
0.769231 7.69231 0
1.53846 7.69231 0
2.30769 7.69231 0
3.07692 7.69231 0
3.84615 7.69231 0
4.61538 7.69231 0
5.38462 7.69231 0
6.15385 7.69231 0
6.92308 7.69231 0
7.69231 7.69231 0
8.46154 7.69231 0
10 7.69231 0
-10 8.46154 0
-9.23077 8.46154 0
-8.46154 8.46154 0
-7.69231 8.46154 0
-6.92308 8.46154 0
-6.15385 8.46154 0
-5.38462 8.46154 0
-4.61538 8.46154 0
-3.84615 8.46154 0
-3.07692 8.46154 0
-2.30769 8.46154 0
-1.53846 8.46154 0
-0.769231 8.46154 0
5.55112e-016 8.46154 0
0.769231 8.46154 0
1.53846 8.46154 0
2.30769 8.46154 0
3.07692 8.46154 0
3.84615 8.46154 0
4.61538 8.46154 0
5.38462 8.46154 0
6.15385 8.46154 0
6.92308 8.46154 0
7.69231 8.46154 0
8.46154 8.46154 0
10 8.46154 0
-10 10 0
-9.23077 10 0
-8.46154 10 0
-7.69231 10 0
-6.92308 10 0
-6.15385 10 0
-5.38462 10 0
-4.61538 10 0
-3.84615 10 0
-3.07692 10 0
-2.30769 10 0
-1.53846 10 0
-0.769231 10 0
5.55112e-016 10 0
0.769231 10 0
1.53846 10 0
2.30769 10 0
3.07692 10 0
3.84615 10 0
4.61538 10 0
5.38462 10 0
6.15385 10 0
6.92308 10 0
7.69231 10 0
8.46154 10 0
10 10 0

POINT_DATA 676
SCALARS h double 1
LOOkUP_TABLE default
0.0156328
0.0158857
0.0161783
0.0165258
0.0169703
0.017587
0.01848
0.0197461
0.0214005
0.023296
0.0250983
0.026366
0.026721
0.0260192
0.0244154
0.0222874
0.0200767
0.01814
0.0166758
0.0157263
0.0152243
0.0150502
0.0150801
0.0152168
0.0154047
0.0156328
0.0222802
0.0226402
0.0228568
0.0229304
0.0228747
0.0227207
0.022521
0.0223499
0.0222763
0.0223179
0.0224042
0.0223846
0.0220922
0.0214353
0.0204607
0.0193502
0.0183512
0.0176861
0.0174835
0.0177534
0.0184033
0.0192783
0.0202107
0.0210651
0.0217593
0.0222802
0.0319515
0.0325088
0.0326046
0.0322601
0.0315103
0.030408
0.0290244
0.0274595
0.025835
0.0242649
0.0228213
0.0215188
0.0203343
0.0192538
0.0183194
0.0176463
0.0173983
0.0177314
0.0187336
0.0203806
0.0225239
0.0249157
0.0272666
0.0293179
0.030897
0.0319515
0.0457354
0.0467195
0.0466849
0.045707
0.0439023
0.0414195
0.0384302
0.0351318
0.0317386
0.0284547
0.0254423
0.0228027
0.0205857
0.018823
0.01757
0.0169335
0.0170683
0.0181412
0.0202682
0.0234426
0.0274794
0.0320074
0.0365313
0.0405497
0.0436764
0.0457354
0.0647879
0.0667297
0.0667148
0.0648969
0.0615483
0.0570179
0.0516916
0.045969
0.0402318
0.0348057
0.0299284
0.0257404
0.0223048
0.01965
0.0178209
0.0169199
0.0171239
0.0186649
0.0217671
0.0265383
0.0328443
0.0402259
0.0479289
0.0550664
0.0608465
0.0647879
0.0899593
0.0939571
0.094506
0.0918198
0.0864082
0.0789642
0.0702588
0.0610552
0.0520266
0.0436896
0.0363712
0.0302209
0.0252619
0.0214626
0.0188108
0.017374
0.0173399
0.0190223
0.0228132
0.0290514
0.0378111
0.0486871
0.0607118
0.0725052
0.0826192
0.0899593
0.121106
0.129155
0.131581
0.128508
0.12072
0.10943
0.0960387
0.0819222
0.0682477
0.0558504
0.0451953
0.0364269
0.029477
0.0241895
0.0204313
0.0181798
0.0175858
0.0190138
0.0230323
0.0302991
0.0412894
0.055914
0.0732135
0.0913582
0.10803
0.121106
0.15615
0.171367
0.178198
0.176246
0.166434
0.150632
0.131178
0.110421
0.090346
0.0723282
0.05708
0.0447555
0.0351492
0.0279077
0.0227
0.019338
0.0178612
0.0186074
0.022258
0.0297918
0.0422279
0.060113
0.0829187
0.108697
0.134283
0.15615
0.190318
0.216698
0.231919
0.234196
0.224069
0.203979
0.177478
0.148349
0.119864
0.0943057
0.0728488
0.0557289
0.0425798
0.0327779
0.0257073
0.0209266
0.0182737
0.0179534
0.0206311
0.0274877
0.0400762
0.0598073
0.0870959
0.120532
0.156588
0.190318
0.216394
0.257696
0.286278
0.29771
0.291023
0.268633
0.235303
0.196683
0.157932
0.12279
0.093266
0.0698606
0.0520781
0.0389717
0.029554
0.0230397
0.0189728
0.017315
0.0185597
0.0238741
0.0351349
0.0545849
0.0839292
0.123079
0.169126
0.216394
0.226726
0.284494
0.330761
0.35729
0.35996
0.339779
0.302061
0.254414
0.204454
0.158077
0.118705
0.087452
0.0638362
0.0465903
0.0342917
0.0257296
0.0200726
0.0169499
0.0165485
0.0197892
0.0285239
0.0454801
0.0735824
0.114564
0.167279
0.226726
0.216627
0.288246
0.353342
0.399719
0.418612
0.407578
0.370848
0.317278
0.257112
0.199063
0.148704
0.108328
0.077779
0.0555818
0.0398746
0.0289696
0.0216018
0.0170104
0.0149977
0.0160743
0.0217259
0.0346325
0.0584063
0.0964689
0.150125
0.216627
0.187249
0.265562
0.345417
0.412235
0.452403
0.458192
0.430341
0.377106
0.310615
0.242617
0.181537
0.131572
0.0934165
0.0656691
0.0461308
0.0326464
0.0234961
0.0175092
0.0140849
0.0132681
0.0159779
0.0243668
0.0419773
0.0731613
0.121456
0.187249
0.14567
0.221027
0.306598
0.388428
0.44992
0.477761
0.467042
0.422717
0.356821
0.283401
0.21398
0.155352
0.109745
0.0763056
0.0527533
0.0365734
0.0256271
0.0183523
0.0137739
0.0115069
0.0118835
0.0162861
0.0275517
0.0499604
0.0882671
0.14567
0.101747
0.165561
0.245854
0.332284
0.408699
0.458223
0.469851
0.442829
0.386256
0.314504
0.24152
0.176964
0.125244
0.0866717
0.0593069
0.0405097
0.0278379
0.0194005
0.0139075
0.0106282
0.00941335
0.0108996
0.0169316
0.0309303
0.0576246
0.101747
0.0638561
0.111479
0.177671
0.257129
0.337439
0.401805
0.435117
0.430286
0.390957
0.329048
0.259121
0.193145
0.137993
0.0957156
0.0652443
0.0441735
0.0299656
0.0205177
0.0143072
0.0103544
0.00817511
0.00784739
0.0102948
0.0177513
0.0340027
0.0638561
0.036253
0.0676094
0.115729
0.179777
0.252614
0.320935
0.369128
0.385564
0.36765
0.322409
0.262511
0.200711
0.145934
0.102246
0.0699301
0.0472432
0.0318425
0.0215864
0.0148281
0.0104333
0.007714
0.00640371
0.00677714
0.00999163
0.0185274
0.036253
0.0190651
0.0372664
0.0682074
0.113758
0.171494
0.233197
0.286102
0.317369
0.319649
0.294208
0.249642
0.197406
0.147292
0.105096
0.0726884
0.0493612
0.0332863
0.0225005
0.0153675
0.0106928
0.00768511
0.00589788
0.00523949
0.00613722
0.00989784
0.0190651
0.00995453
0.0192473
0.0368769
0.0656073
0.105984
0.154415
0.202593
0.239585
0.256174
0.249003
0.22175
0.182764
0.141088
0.103379
0.0729036
0.0501603
0.0340978
0.0231528
0.0158501
0.0110331
0.00788727
0.0058912
0.00478211
0.00459919
0.00587157
0.00995453
0.00596801
0.0101585
0.0190976
0.0352567
0.0603696
0.093867
0.131612
0.166161
0.18919
0.195076
0.183378
0.158596
0.127625
0.0968065
0.0701871
0.0493361
0.0340851
0.0234359
0.0162152
0.0114024
0.00822849
0.00616504
0.00488758
0.00426655
0.00443336
0.00596801
0.00475557
0.00646715
0.0105858
0.0187967
0.0328337
0.0534956
0.0794683
0.106725
0.129336
0.141719
0.141127
0.128728
0.108666
0.0859459
0.0645728
0.0467614
0.033119
0.0232645
0.0164194
0.0117809
0.0086858
0.00664726
0.00533823
0.00457212
0.00431382
0.00475557
0.00497533
0.00564538
0.00747148
0.0113848
0.0186004
0.0301558
0.0461243
0.0648773
0.0830076
0.0963263
0.101596
0.0979561
0.0871033
0.0722455
0.0566422
0.0425986
0.0312069
0.0226148
0.0164525
0.0121803
0.00928459
0.00735555
0.00609853
0.00532321
0.00493839
0.00497533
0.00609734
0.00638596
0.00724826
0.00912956
0.0127065
0.0187456
0.0277081
0.0392167
0.0517084
0.0626589
0.0694724
0.0705964
0.0661543
0.0577182
0.04747
0.0373405
0.0285451
0.021563
0.0163608
0.0126545
0.0100963
0.00837405
0.00724585
0.00654379
0.00616922
0.00609734
0.00808263
0.0082669
0.00875808
0.00975159
0.0115682
0.0146391
0.0193533
0.0257766
0.0333588
0.0408551
0.0466406
0.0493419
0.0484256
0.0443721
0.0383612
0.0317264
0.0255125
0.0203013
0.0162641
0.0133139
0.0112509
0.00985972
0.00895747
0.00840926
0.00812954
0.00808263
0.0111214
0.0113123
0.0116706
0.012265
0.0132269
0.014756
0.0170765
0.0203197
0.0243586
0.0286903
0.0324883
0.0348682
0.0352521
0.0336115
0.0304417
0.0265098
0.0225513
0.019074
0.0163129
0.0142888
0.012901
0.0120057
0.0114663
0.0111771
0.0110713
0.0111214
0.0156328
0.0158857
0.0161783
0.0165258
0.0169703
0.017587
0.01848
0.0197461
0.0214005
0.023296
0.0250983
0.026366
0.026721
0.0260192
0.0244154
0.0222874
0.0200767
0.01814
0.0166758
0.0157263
0.0152243
0.0150502
0.0150801
0.0152168
0.0154047
0.0156328

VECTORS u double
-134.522 140.024 0.0
-134.372 140.598 0.0
-134.522 140.69 0.0
-135.071 140.331 0.0
-136.053 139.488 0.0
-137.472 138.15 0.0
-139.293 136.37 0.0
-141.43 134.305 0.0
-143.731 132.198 0.0
-146.006 130.273 0.0
-148.066 128.65 0.0
-149.759 127.329 0.0
-150.974 126.253 0.0
-151.626 125.375 0.0
-151.65 124.707 0.0
-151.005 124.342 0.0
-149.696 124.437 0.0
-147.821 125.154 0.0
-145.585 126.563 0.0
-143.256 128.562 0.0
-141.078 130.903 0.0
-139.195 133.293 0.0
-137.643 135.5 0.0
-136.399 137.381 0.0
-135.419 138.885 0.0
-134.522 140.024 0.0
-136.293 142.821 0.0
-136.26 143.385 0.0
-136.513 143.362 0.0
-137.113 142.961 0.0
-138.06 142.162 0.0
-139.324 140.953 0.0
-140.843 139.341 0.0
-142.527 137.377 0.0
-144.271 135.179 0.0
-145.964 132.921 0.0
-147.494 130.788 0.0
-148.753 128.91 0.0
-149.637 127.35 0.0
-150.049 126.14 0.0
-149.901 125.331 0.0
-149.14 125.039 0.0
-147.789 125.421 0.0
-145.991 126.593 0.0
-143.997 128.516 0.0
-142.084 130.961 0.0
-140.444 133.6 0.0
-139.144 136.137 0.0
-138.165 138.383 0.0
-137.462 140.248 0.0
-136.971 141.712 0.0
-136.293 142.821 0.0
-138.356 145.138 0.0
-138.385 145.699 0.0
-138.682 145.668 0.0
-139.315 145.25 0.0
-140.264 144.464 0.0
-141.483 143.315 0.0
-142.893 141.81 0.0
-144.392 139.969 0.0
-145.865 137.846 0.0
-147.204 135.538 0.0
-148.322 133.184 0.0
-149.149 130.94 0.0
-149.619 128.951 0.0
-149.66 127.347 0.0
-149.198 126.275 0.0
-148.193 125.916 0.0
-146.697 126.451 0.0
-144.907 127.953 0.0
-143.112 130.267 0.0
-141.571 133.042 0.0
-140.407 135.891 0.0
-139.616 138.528 0.0
-139.126 140.802 0.0
-138.862 142.655 0.0
-138.749 144.081 0.0
-138.356 145.138 0.0
-140.377 146.995 0.0
-140.539 147.579 0.0
-140.907 147.61 0.0
-141.577 147.226 0.0
-142.538 146.469 0.0
-143.744 145.359 0.0
-145.113 143.913 0.0
-146.537 142.149 0.0
-147.896 140.1 0.0
-149.073 137.822 0.0
-149.974 135.406 0.0
-150.529 132.977 0.0
-150.683 130.69 0.0
-150.383 128.732 0.0
-149.575 127.333 0.0
-148.248 126.774 0.0
-146.505 127.308 0.0
-144.611 128.997 0.0
-142.904 131.588 0.0
-141.623 134.615 0.0
-140.824 137.633 0.0
-140.43 140.361 0.0
-140.321 142.676 0.0
-140.395 144.537 0.0
-140.553 145.951 0.0
-140.377 146.995 0.0
-142.313 148.399 0.0
-142.628 149.059 0.0
-143.093 149.193 0.0
-143.816 148.887 0.0
-144.802 148.189 0.0
-146.011 147.129 0.0
-147.364 145.731 0.0
-148.755 144.017 0.0
-150.062 142.015 0.0
-151.167 139.766 0.0
-151.969 137.332 0.0
-152.39 134.807 0.0
-152.369 132.324 0.0
-151.848 130.072 0.0
-150.772 128.326 0.0
-149.137 127.455 0.0
-147.088 127.823 0.0
-144.975 129.548 0.0
-143.214 132.318 0.0
-142.053 135.552 0.0
-141.49 138.735 0.0
-141.382 141.573 0.0
-141.562 143.957 0.0
-141.901 145.864 0.0
-142.291 147.312 0.0
-142.313 148.399 0.0
-144.109 149.336 0.0
-144.588 150.119 0.0
-145.169 150.39 0.0
-145.962 150.202 0.0
-146.988 149.597 0.0
-148.214 148.611 0.0
-149.568 147.271 0.0
-150.946 145.605 0.0
-152.228 143.64 0.0
-153.297 141.411 0.0
-154.053 138.968 0.0
-154.416 136.382 0.0
-154.32 133.76 0.0
-153.696 131.267 0.0
-152.47 129.176 0.0
-150.611 127.904 0.0
-148.261 127.936 0.0
-145.836 129.526 0.0
-143.874 132.374 0.0
-142.682 135.79 0.0
-142.229 139.152 0.0
-142.311 142.131 0.0
-142.712 144.623 0.0
-143.277 146.619 0.0
-143.884 148.15 0.0
-144.109 149.336 0.0
-145.709 149.77 0.0
-146.362 150.716 0.0
-147.075 151.155 0.0
-147.956 151.118 0.0
-149.036 150.64 0.0
-150.293 149.756 0.0
-151.662 148.496 0.0
-153.041 146.891 0.0
-154.315 144.97 0.0
-155.369 142.767 0.0
-156.105 140.322 0.0
-156.446 137.696 0.0
-156.33 134.973 0.0
-155.687 132.289 0.0
-154.424 129.879 0.0
-152.462 128.152 0.0
-149.875 127.69 0.0
-147.089 128.944 0.0
-144.779 131.741 0.0
-143.397 135.306 0.0
-142.93 138.87 0.0
-143.117 142.028 0.0
-143.687 144.667 0.0
-144.453 146.791 0.0
-145.272 148.445 0.0
-145.709 149.77 0.0
-147.057 149.667 0.0
-147.898 150.798 0.0
-148.759 151.431 0.0
-149.746 151.575 0.0
-150.896 151.255 0.0
-152.196 150.502 0.0
-153.589 149.347 0.0
-154.982 147.825 0.0
-156.262 145.965 0.0
-157.317 143.801 0.0
-158.05 141.372 0.0
-158.39 138.729 0.0
-158.285 135.941 0.0
-157.673 133.115 0.0
-156.46 130.437 0.0
-154.523 128.261 0.0
-151.825 127.189 0.0
-148.697 127.884 0.0
-145.916 130.444 0.0
-144.167 134.103 0.0
-143.545 137.892 0.0
-143.749 141.27 0.0
-144.438 144.092 0.0
-145.378 146.374 0.0
-146.401 148.178 0.0
-147.057 149.667 0.0
-148.108 149.006 0.0
-149.147 150.331 0.0
-150.174 151.17 0.0
-151.286 151.518 0.0
-152.521 151.383 0.0
-153.876 150.789 0.0
-155.305 149.766 0.0
-156.721 148.35 0.0
-158.019 146.573 0.0
-159.087 144.47 0.0
-159.834 142.078 0.0
-160.19 139.443 0.0
-160.113 136.625 0.0
-159.557 133.709 0.0
-158.445 130.835 0.0
-156.638 128.273 0.0
-153.995 126.56 0.0
-150.649 126.492 0.0
-147.338 128.559 0.0
-145.033 132.194 0.0
-144.085 136.223 0.0
-144.197 139.869 0.0
-144.943 142.913 0.0
-146.023 145.376 0.0
-147.232 147.345 0.0
-148.108 149.006 0.0
-148.826 147.794 0.0
-150.07 149.306 0.0
-151.278 150.353 0.0
-152.534 150.915 0.0
-153.874 150.986 0.0
-155.299 150.576 0.0
-156.774 149.712 0.0
-158.224 148.426 0.0
-159.548 146.755 0.0
-160.642 144.735 0.0
-161.415 142.404 0.0
-161.801 139.804 0.0
-161.762 136.99 0.0
-161.271 134.032 0.0
-160.276 131.036 0.0
-158.658 128.192 0.0
-156.223 125.91 0.0
-152.881 124.968 0.0
-149.121 126.233 0.0
-146.101 129.621 0.0
-144.608 133.868 0.0
-144.481 137.842 0.0
-145.203 141.156 0.0
-146.374 143.825 0.0
-147.741 145.966 0.0
-148.826 147.794 0.0
-149.193 146.075 0.0
-150.638 147.756 0.0
-152.038 148.997 0.0
-153.456 149.772 0.0
-154.92 150.058 0.0
-156.436 149.852 0.0
-157.972 149.17 0.0
-159.465 148.04 0.0
-160.826 146.5 0.0
-161.955 144.586 0.0
-162.765 142.34 0.0
-163.191 139.802 0.0
-163.199 137.023 0.0
-162.772 134.065 0.0
-161.885 131.012 0.0
-160.458 127.996 0.0
-158.312 125.294 0.0
-155.216 123.524 0.0
-151.274 123.719 0.0
-147.508 126.485 0.0
-145.225 130.834 0.0
-144.656 135.198 0.0
-145.238 138.855 0.0
-146.436 141.767 0.0
-147.918 144.091 0.0
-149.193 146.075 0.0
-149.205 143.924 0.0
-150.838 145.749 0.0
-152.429 147.162 0.0
-154.023 148.134 0.0
-155.633 148.634 0.0
-157.259 148.643 0.0
-158.876 148.163 0.0
-160.428 147.213 0.0
-161.836 145.828 0.0
-163.01 144.046 0.0
-163.867 141.908 0.0
-164.343 139.458 0.0
-164.404 136.743 0.0
-164.037 133.822 0.0
-163.238 130.765 0.0
-161.966 127.67 0.0
-160.099 124.715 0.0
-157.389 122.311 0.0
-153.634 121.365 0.0
-149.355 123.036 0.0
-146.097 127.16 0.0
-144.813 131.932 0.0
-145.092 136.04 0.0
-146.231 139.263 0.0
-147.775 141.792 0.0
-149.205 143.924 0.0
-148.879 141.438 0.0
-150.674 143.387 0.0
-152.447 144.941 0.0
-154.219 146.086 0.0
-155.988 146.785 0.0
-157.746 147.009 0.0
-159.465 146.744 0.0
-161.096 145.996 0.0
-162.567 144.791 0.0
-163.798 143.167 0.0
-164.71 141.164 0.0
-165.244 138.827 0.0
-165.363 136.205 0.0
-165.056 133.352 0.0
-164.325 130.333 0.0
-163.161 127.231 0.0
-161.502 124.163 0.0
-159.168 121.377 0.0
-155.86 119.49 0.0
-151.55 119.735 0.0
-147.392 123.018 0.0
-145.09 128.032 0.0
-144.829 132.713 0.0
-145.793 136.365 0.0
-147.335 139.151 0.0
-148.879 141.438 0.0
-148.24 138.714 0.0
-150.165 140.779 0.0
-152.099 142.449 0.0
-154.041 143.736 0.0
-155.976 144.612 0.0
-157.881 145.039 0.0
-159.722 144.991 0.0
-161.452 144.459 0.0
-163.004 143.458 0.0
-164.306 142.018 0.0
-165.285 140.178 0.0
-165.885 137.983 0.0
-166.067 135.481 0.0
-165.819 132.727 0.0
-165.145 129.784 0.0
-164.052 126.727 0.0
-162.518 123.648 0.0
-160.45 120.699 0.0
-157.613 118.231 0.0
-153.717 117.141 0.0
-149.137 118.887 0.0
-145.664 123.559 0.0
-144.54 128.839 0.0
-145.161 133.089 0.0
-146.628 136.239 0.0
-148.24 138.714 0.0
-147.31 135.832 0.0
-149.336 138.03 0.0
-151.406 139.8 0.0
-153.503 141.201 0.0
-155.597 142.224 0.0
-157.654 142.833 0.0
-159.633 142.994 0.0
-161.48 142.685 0.0
-163.132 141.905 0.0
-164.52 140.673 0.0
-165.578 139.024 0.0
-166.252 137 0.0
-166.505 134.649 0.0
-166.319 132.026 0.0
-165.697 129.193 0.0
-164.65 126.224 0.0
-163.181 123.204 0.0
-161.255 120.243 0.0
-158.743 117.534 0.0
-155.377 115.575 0.0
-151.008 115.579 0.0
-146.653 118.902 0.0
-144.344 124.39 0.0
-144.371 129.397 0.0
-145.67 133.083 0.0
-147.31 135.832 0.0
-146.079 132.824 0.0
-148.195 135.218 0.0
-150.385 137.094 0.0
-152.62 138.589 0.0
-154.861 139.729 0.0
-157.068 140.493 0.0
-159.19 140.845 0.0
-161.168 140.752 0.0
-162.935 140.201 0.0
-164.425 139.197 0.0
-165.574 137.764 0.0
-166.332 135.94 0.0
-166.662 133.771 0.0
-166.543 131.31 0.0
-165.973 128.621 0.0
-164.961 125.779 0.0
-163.521 122.87 0.0
-161.648 119.991 0.0
-159.29 117.271 0.0
-156.295 114.959 0.0
-152.422 113.731 0.0
-147.878 115.03 0.0
-144.36 119.619 0.0
-143.444 125.223 0.0
-144.439 129.652 0.0
-146.079 132.824 0.0
-144.465 129.674 0.0
-146.703 132.377 0.0
-149.03 134.4 0.0
-151.4 135.985 0.0
-153.781 137.219 0.0