# vtk DataFile Version 2.0
Particulate Flow Equations Solution
ASCII
DATASET STRUCTURED_GRID
DIMENSIONS 26 26 1
POINTS 676 double
-10 -10 0
-9.23077 -10 0
-8.46154 -10 0
-7.69231 -10 0
-6.92308 -10 0
-6.15385 -10 0
-5.38462 -10 0
-4.61538 -10 0
-3.84615 -10 0
-3.07692 -10 0
-2.30769 -10 0
-1.53846 -10 0
-0.769231 -10 0
5.55112e-016 -10 0
0.769231 -10 0
1.53846 -10 0
2.30769 -10 0
3.07692 -10 0
3.84615 -10 0
4.61538 -10 0
5.38462 -10 0
6.15385 -10 0
6.92308 -10 0
7.69231 -10 0
8.46154 -10 0
10 -10 0
-10 -9.23077 0
-9.23077 -9.23077 0
-8.46154 -9.23077 0
-7.69231 -9.23077 0
-6.92308 -9.23077 0
-6.15385 -9.23077 0
-5.38462 -9.23077 0
-4.61538 -9.23077 0
-3.84615 -9.23077 0
-3.07692 -9.23077 0
-2.30769 -9.23077 0
-1.53846 -9.23077 0
-0.769231 -9.23077 0
5.55112e-016 -9.23077 0
0.769231 -9.23077 0
1.53846 -9.23077 0
2.30769 -9.23077 0
3.07692 -9.23077 0
3.84615 -9.23077 0
4.61538 -9.23077 0
5.38462 -9.23077 0
6.15385 -9.23077 0
6.92308 -9.23077 0
7.69231 -9.23077 0
8.46154 -9.23077 0
10 -9.23077 0
-10 -8.46154 0
-9.23077 -8.46154 0
-8.46154 -8.46154 0
-7.69231 -8.46154 0
-6.92308 -8.46154 0
-6.15385 -8.46154 0
-5.38462 -8.46154 0
-4.61538 -8.46154 0
-3.84615 -8.46154 0
-3.07692 -8.46154 0
-2.30769 -8.46154 0
-1.53846 -8.46154 0
-0.769231 -8.46154 0
5.55112e-016 -8.46154 0
0.769231 -8.46154 0
1.53846 -8.46154 0
2.30769 -8.46154 0
3.07692 -8.46154 0
3.84615 -8.46154 0
4.61538 -8.46154 0
5.38462 -8.46154 0
6.15385 -8.46154 0
6.92308 -8.46154 0
7.69231 -8.46154 0
8.46154 -8.46154 0
10 -8.46154 0
-10 -7.69231 0
-9.23077 -7.69231 0
-8.46154 -7.69231 0
-7.69231 -7.69231 0
-6.92308 -7.69231 0
-6.15385 -7.69231 0
-5.38462 -7.69231 0
-4.61538 -7.69231 0
-3.84615 -7.69231 0
-3.07692 -7.69231 0
-2.30769 -7.69231 0
-1.53846 -7.69231 0
-0.769231 -7.69231 0
5.55112e-016 -7.69231 0
0.769231 -7.69231 0
1.53846 -7.69231 0
2.30769 -7.69231 0
3.07692 -7.69231 0
3.84615 -7.69231 0
4.61538 -7.69231 0
5.38462 -7.69231 0
6.15385 -7.69231 0
6.92308 -7.69231 0
7.69231 -7.69231 0
8.46154 -7.69231 0
10 -7.69231 0
-10 -6.92308 0
-9.23077 -6.92308 0
-8.46154 -6.92308 0
-7.69231 -6.92308 0
-6.92308 -6.92308 0
-6.15385 -6.92308 0
-5.38462 -6.92308 0
-4.61538 -6.92308 0
-3.84615 -6.92308 0
-3.07692 -6.92308 0
-2.30769 -6.92308 0
-1.53846 -6.92308 0
-0.769231 -6.92308 0
5.55112e-016 -6.92308 0
0.769231 -6.92308 0
1.53846 -6.92308 0
2.30769 -6.92308 0
3.07692 -6.92308 0
3.84615 -6.92308 0
4.61538 -6.92308 0
5.38462 -6.92308 0
6.15385 -6.92308 0
6.92308 -6.92308 0
7.69231 -6.92308 0
8.46154 -6.92308 0
10 -6.92308 0
-10 -6.15385 0
-9.23077 -6.15385 0
-8.46154 -6.15385 0
-7.69231 -6.15385 0
-6.92308 -6.15385 0
-6.15385 -6.15385 0
-5.38462 -6.15385 0
-4.61538 -6.15385 0
-3.84615 -6.15385 0
-3.07692 -6.15385 0
-2.30769 -6.15385 0
-1.53846 -6.15385 0
-0.769231 -6.15385 0
5.55112e-016 -6.15385 0
0.769231 -6.15385 0
1.53846 -6.15385 0
2.30769 -6.15385 0
3.07692 -6.15385 0
3.84615 -6.15385 0
4.61538 -6.15385 0
5.38462 -6.15385 0
6.15385 -6.15385 0
6.92308 -6.15385 0
7.69231 -6.15385 0
8.46154 -6.15385 0
10 -6.15385 0
-10 -5.38462 0
-9.23077 -5.38462 0
-8.46154 -5.38462 0
-7.69231 -5.38462 0
-6.92308 -5.38462 0
-6.15385 -5.38462 0
-5.38462 -5.38462 0
-4.61538 -5.38462 0
-3.84615 -5.38462 0
-3.07692 -5.38462 0
-2.30769 -5.38462 0
-1.53846 -5.38462 0
-0.769231 -5.38462 0
5.55112e-016 -5.38462 0
0.769231 -5.38462 0
1.53846 -5.38462 0
2.30769 -5.38462 0
3.07692 -5.38462 0
3.84615 -5.38462 0
4.61538 -5.38462 0
5.38462 -5.38462 0
6.15385 -5.38462 0
6.92308 -5.38462 0
7.69231 -5.38462 0
8.46154 -5.38462 0
10 -5.38462 0
-10 -4.61538 0
-9.23077 -4.61538 0
-8.46154 -4.61538 0
-7.69231 -4.61538 0
-6.92308 -4.61538 0
-6.15385 -4.61538 0
-5.38462 -4.61538 0
-4.61538 -4.61538 0
-3.84615 -4.61538 0
-3.07692 -4.61538 0
-2.30769 -4.61538 0
-1.53846 -4.61538 0
-0.769231 -4.61538 0
5.55112e-016 -4.61538 0
0.769231 -4.61538 0
1.53846 -4.61538 0
2.30769 -4.61538 0
3.07692 -4.61538 0
3.84615 -4.61538 0
4.61538 -4.61538 0
5.38462 -4.61538 0
6.15385 -4.61538 0
6.92308 -4.61538 0
7.69231 -4.61538 0
8.46154 -4.61538 0
10 -4.61538 0
-10 -3.84615 0
-9.23077 -3.84615 0
-8.46154 -3.84615 0
-7.69231 -3.84615 0
-6.92308 -3.84615 0
-6.15385 -3.84615 0
-5.38462 -3.84615 0
-4.61538 -3.84615 0
-3.84615 -3.84615 0
-3.07692 -3.84615 0
-2.30769 -3.84615 0
-1.53846 -3.84615 0
-0.769231 -3.84615 0
5.55112e-016 -3.84615 0
0.769231 -3.84615 0
1.53846 -3.84615 0
2.30769 -3.84615 0
3.07692 -3.84615 0
3.84615 -3.84615 0
4.61538 -3.84615 0
5.38462 -3.84615 0
6.15385 -3.84615 0
6.92308 -3.84615 0
7.69231 -3.84615 0
8.46154 -3.84615 0
10 -3.84615 0
-10 -3.07692 0
-9.23077 -3.07692 0
-8.46154 -3.07692 0
-7.69231 -3.07692 0
-6.92308 -3.07692 0
-6.15385 -3.07692 0
-5.38462 -3.07692 0
-4.61538 -3.07692 0
-3.84615 -3.07692 0
-3.07692 -3.07692 0
-2.30769 -3.07692 0
-1.53846 -3.07692 0
-0.769231 -3.07692 0
5.55112e-016 -3.07692 0
0.769231 -3.07692 0
1.53846 -3.07692 0
2.30769 -3.07692 0
3.07692 -3.07692 0
3.84615 -3.07692 0
4.61538 -3.07692 0
5.38462 -3.07692 0
6.15385 -3.07692 0
6.92308 -3.07692 0
7.69231 -3.07692 0
8.46154 -3.07692 0
10 -3.07692 0
-10 -2.30769 0
-9.23077 -2.30769 0
-8.46154 -2.30769 0
-7.69231 -2.30769 0
-6.92308 -2.30769 0
-6.15385 -2.30769 0
-5.38462 -2.30769 0
-4.61538 -2.30769 0
-3.84615 -2.30769 0
-3.07692 -2.30769 0
-2.30769 -2.30769 0
-1.53846 -2.30769 0
-0.769231 -2.30769 0
5.55112e-016 -2.30769 0
0.769231 -2.30769 0
1.53846 -2.30769 0
2.30769 -2.30769 0
3.07692 -2.30769 0
3.84615 -2.30769 0
4.61538 -2.30769 0
5.38462 -2.30769 0
6.15385 -2.30769 0
6.92308 -2.30769 0
7.69231 -2.30769 0
8.46154 -2.30769 0
10 -2.30769 0
-10 -1.53846 0
-9.23077 -1.53846 0
-8.46154 -1.53846 0
-7.69231 -1.53846 0
-6.92308 -1.53846 0
-6.15385 -1.53846 0
-5.38462 -1.53846 0
-4.61538 -1.53846 0
-3.84615 -1.53846 0
-3.07692 -1.53846 0
-2.30769 -1.53846 0
-1.53846 -1.53846 0
-0.769231 -1.53846 0
5.55112e-016 -1.53846 0
0.769231 -1.53846 0
1.53846 -1.53846 0
2.30769 -1.53846 0
3.07692 -1.53846 0
3.84615 -1.53846 0
4.61538 -1.53846 0
5.38462 -1.53846 0
6.15385 -1.53846 0
6.92308 -1.53846 0
7.69231 -1.53846 0
8.46154 -1.53846 0
10 -1.53846 0
-10 -0.769231 0
-9.23077 -0.769231 0
-8.46154 -0.769231 0
-7.69231 -0.769231 0
-6.92308 -0.769231 0
-6.15385 -0.769231 0
-5.38462 -0.769231 0
-4.61538 -0.769231 0
-3.84615 -0.769231 0
-3.07692 -0.769231 0
-2.30769 -0.769231 0
-1.53846 -0.769231 0
-0.769231 -0.769231 0
5.55112e-016 -0.769231 0
0.769231 -0.769231 0
1.53846 -0.769231 0
2.30769 -0.769231 0
3.07692 -0.769231 0
3.84615 -0.769231 0
4.61538 -0.769231 0
5.38462 -0.769231 0
6.15385 -0.769231 0
6.92308 -0.769231 0
7.69231 -0.769231 0
8.46154 -0.769231 0
10 -0.769231 0
-10 5.55112e-016 0
-9.23077 5.55112e-016 0
-8.46154 5.55112e-016 0
-7.69231 5.55112e-016 0
-6.92308 5.55112e-016 0
-6.15385 5.55112e-016 0
-5.38462 5.55112e-016 0
-4.61538 5.55112e-016 0
-3.84615 5.55112e-016 0
-3.07692 5.55112e-016 0
-2.30769 5.55112e-016 0
-1.53846 5.55112e-016 0
-0.769231 5.55112e-016 0
5.55112e-016 5.55112e-016 0
0.769231 5.55112e-016 0
1.53846 5.55112e-016 0
2.30769 5.55112e-016 0
3.07692 5.55112e-016 0
3.84615 5.55112e-016 0
4.61538 5.55112e-016 0
5.38462 5.55112e-016 0
6.15385 5.55112e-016 0
6.92308 5.55112e-016 0
7.69231 5.55112e-016 0
8.46154 5.55112e-016 0
10 5.55112e-016 0
-10 0.769231 0
-9.23077 0.769231 0
-8.46154 0.769231 0
-7.69231 0.769231 0
-6.92308 0.769231 0
-6.15385 0.769231 0
-5.38462 0.769231 0
-4.61538 0.769231 0
-3.84615 0.769231 0
-3.07692 0.769231 0
-2.30769 0.769231 0
-1.53846 0.769231 0
-0.769231 0.769231 0
5.55112e-016 0.769231 0
0.769231 0.769231 0
1.53846 0.769231 0
2.30769 0.769231 0
3.07692 0.769231 0
3.84615 0.769231 0
4.61538 0.769231 0
5.38462 0.769231 0
6.15385 0.769231 0
6.92308 0.769231 0
7.69231 0.769231 0
8.46154 0.769231 0
10 0.769231 0
-10 1.53846 0
-9.23077 1.53846 0
-8.46154 1.53846 0
-7.69231 1.53846 0
-6.92308 1.53846 0
-6.15385 1.53846 0
-5.38462 1.53846 0
-4.61538 1.53846 0
-3.84615 1.53846 0
-3.07692 1.53846 0
-2.30769 1.53846 0
-1.53846 1.53846 0
-0.769231 1.53846 0
5.55112e-016 1.53846 0
0.769231 1.53846 0
1.53846 1.53846 0
2.30769 1.53846 0
3.07692 1.53846 0
3.84615 1.53846 0
4.61538 1.53846 0
5.38462 1.53846 0
6.15385 1.53846 0
6.92308 1.53846 0
7.69231 1.53846 0
8.46154 1.53846 0
10 1.53846 0
-10 2.30769 0
-9.23077 2.30769 0
-8.46154 2.30769 0
-7.69231 2.30769 0
-6.92308 2.30769 0
-6.15385 2.30769 0
-5.38462 2.30769 0
-4.61538 2.30769 0
-3.84615 2.30769 0
-3.07692 2.30769 0
-2.30769 2.30769 0
-1.53846 2.30769 0
-0.769231 2.30769 0
5.55112e-016 2.30769 0
0.769231 2.30769 0
1.53846 2.30769 0
2.30769 2.30769 0
3.07692 2.30769 0
3.84615 2.30769 0
4.61538 2.30769 0
5.38462 2.30769 0
6.15385 2.30769 0
6.92308 2.30769 0
7.69231 2.30769 0
8.46154 2.30769 0
10 2.30769 0
-10 3.07692 0
-9.23077 3.07692 0
-8.46154 3.07692 0
-7.69231 3.07692 0
-6.92308 3.07692 0
-6.15385 3.07692 0
-5.38462 3.07692 0
-4.61538 3.07692 0
-3.84615 3.07692 0
-3.07692 3.07692 0
-2.30769 3.07692 0
-1.53846 3.07692 0
-0.769231 3.07692 0
5.55112e-016 3.07692 0
0.769231 3.07692 0
1.53846 3.07692 0
2.30769 3.07692 0
3.07692 3.07692 0
3.84615 3.07692 0
4.61538 3.07692 0
5.38462 3.07692 0
6.15385 3.07692 0
6.92308 3.07692 0
7.69231 3.07692 0
8.46154 3.07692 0
10 3.07692 0
-10 3.84615 0
-9.23077 3.84615 0
-8.46154 3.84615 0
-7.69231 3.84615 0
-6.92308 3.84615 0
-6.15385 3.84615 0
-5.38462 3.84615 0
-4.61538 3.84615 0
-3.84615 3.84615 0
-3.07692 3.84615 0
-2.30769 3.84615 0
-1.53846 3.84615 0
-0.769231 3.84615 0
5.55112e-016 3.84615 0
0.769231 3.84615 0
1.53846 3.84615 0
2.30769 3.84615 0
3.07692 3.84615 0
3.84615 3.84615 0
4.61538 3.84615 0
5.38462 3.84615 0
6.15385 3.84615 0
6.92308 3.84615 0
7.69231 3.84615 0
8.46154 3.84615 0
10 3.84615 0
-10 4.61538 0
-9.23077 4.61538 0
-8.46154 4.61538 0
-7.69231 4.61538 0
-6.92308 4.61538 0
-6.15385 4.61538 0
-5.38462 4.61538 0
-4.61538 4.61538 0
-3.84615 4.61538 0
-3.07692 4.61538 0
-2.30769 4.61538 0
-1.53846 4.61538 0
-0.769231 4.61538 0
5.55112e-016 4.61538 0
0.769231 4.61538 0
1.53846 4.61538 0
2.30769 4.61538 0
3.07692 4.61538 0
3.84615 4.61538 0
4.61538 4.61538 0
5.38462 4.61538 0
6.15385 4.61538 0
6.92308 4.61538 0
7.69231 4.61538 0
8.46154 4.61538 0
10 4.61538 0
-10 5.38462 0
-9.23077 5.38462 0
-8.46154 5.38462 0
-7.69231 5.38462 0
-6.92308 5.38462 0
-6.15385 5.38462 0
-5.38462 5.38462 0
-4.61538 5.38462 0
-3.84615 5.38462 0
-3.07692 5.38462 0
-2.30769 5.38462 0
-1.53846 5.38462 0
-0.769231 5.38462 0
5.55112e-016 5.38462 0
0.769231 5.38462 0
1.53846 5.38462 0
2.30769 5.38462 0
3.07692 5.38462 0
3.84615 5.38462 0
4.61538 5.38462 0
5.38462 5.38462 0
6.15385 5.38462 0
6.92308 5.38462 0
7.69231 5.38462 0
8.46154 5.38462 0
10 5.38462 0
-10 6.15385 0
-9.23077 6.15385 0
-8.46154 6.15385 0
-7.69231 6.15385 0
-6.92308 6.15385 0
-6.15385 6.15385 0
-5.38462 6.15385 0
-4.61538 6.15385 0
-3.84615 6.15385 0
-3.07692 6.15385 0
-2.30769 6.15385 0
-1.53846 6.15385 0
-0.769231 6.15385 0
5.55112e-016 6.15385 0
0.769231 6.15385 0
1.53846 6.15385 0
2.30769 6.15385 0
3.07692 6.15385 0
3.84615 6.15385 0
4.61538 6.15385 0
5.38462 6.15385 0
6.15385 6.15385 0
6.92308 6.15385 0
7.69231 6.15385 0
8.46154 6.15385 0
10 6.15385 0
-10 6.92308 0
-9.23077 6.92308 0
-8.46154 6.92308 0
-7.69231 6.92308 0
-6.92308 6.92308 0
-6.15385 6.92308 0
-5.38462 6.92308 0
-4.61538 6.92308 0
-3.84615 6.92308 0
-3.07692 6.92308 0
-2.30769 6.92308 0
-1.53846 6.92308 0
-0.769231 6.92308 0
5.55112e-016 6.92308 0
0.769231 6.92308 0
1.53846 6.92308 0
2.30769 6.92308 0
3.07692 6.92308 0
3.84615 6.92308 0
4.61538 6.92308 0
5.38462 6.92308 0
6.15385 6.92308 0
6.92308 6.92308 0
7.69231 6.92308 0
8.46154 6.92308 0
10 6.92308 0
-10 7.69231 0
-9.23077 7.69231 0
-8.46154 7.69231 0
-7.69231 7.69231 0
-6.92308 7.69231 0
-6.15385 7.69231 0
-5.38462 7.69231 0
-4.61538 7.69231 0
-3.84615 7.69231 0
-3.07692 7.69231 0
-2.30769 7.69231 0
-1.53846 7.69231 0
-0.769231 7.69231 0
5.55112e-016 7.69231 0
0.769231 7.69231 0
1.53846 7.69231 0
2.30769 7.69231 0
3.07692 7.69231 0
3.84615 7.69231 0
4.61538 7.69231 0
5.38462 7.69231 0
6.15385 7.69231 0
6.92308 7.69231 0
7.69231 7.69231 0
8.46154 7.69231 0
10 7.69231 0
-10 8.46154 0
-9.23077 8.46154 0
-8.46154 8.46154 0
-7.69231 8.46154 0
-6.92308 8.46154 0
-6.15385 8.46154 0
-5.38462 8.46154 0
-4.61538 8.46154 0
-3.84615 8.46154 0
-3.07692 8.46154 0
-2.30769 8.46154 0
-1.53846 8.46154 0
-0.769231 8.46154 0
5.55112e-016 8.46154 0
0.769231 8.46154 0
1.53846 8.46154 0
2.30769 8.46154 0
3.07692 8.46154 0
3.84615 8.46154 0
4.61538 8.46154 0
5.38462 8.46154 0
6.15385 8.46154 0
6.92308 8.46154 0
7.69231 8.46154 0
8.46154 8.46154 0
10 8.46154 0
-10 10 0
-9.23077 10 0
-8.46154 10 0
-7.69231 10 0
-6.92308 10 0
-6.15385 10 0
-5.38462 10 0
-4.61538 10 0
-3.84615 10 0
-3.07692 10 0
-2.30769 10 0
-1.53846 10 0
-0.769231 10 0
5.55112e-016 10 0
0.769231 10 0
1.53846 10 0
2.30769 10 0
3.07692 10 0
3.84615 10 0
4.61538 10 0
5.38462 10 0
6.15385 10 0
6.92308 10 0
7.69231 10 0
8.46154 10 0
10 10 0

POINT_DATA 676
SCALARS h double 1
LOOkUP_TABLE default
0.00626176
0.00578205
0.00557301
0.00571889
0.0063574
0.00765724
0.00974647
0.0126181
0.0160611
0.0196757
0.022983
0.0255677
0.0271747
0.0277215
0.0272537
0.0258967
0.0238324
0.0212881
0.0185177
0.0157687
0.0132464
0.0110854
0.00933913
0.00799142
0.00698573
0.00626176
0.00703111
0.00639849
0.00614025
0.00640952
0.00747073
0.00968235
0.01339
0.0187318
0.0254348
0.0327526
0.0396265
0.0449987
0.0481055
0.0486194
0.0466438
0.0426391
0.0373166
0.0314834
0.0258486
0.020881
0.016785
0.0135681
0.0111278
0.0093172
0.00798888
0.00703111
0.00787755
0.00700693
0.0066218
0.00695455
0.00843857
0.0117308
0.0175999
0.0265998
0.038604
0.0524843
0.066211
0.0774041
0.0840604
0.0851061
0.0806103
0.0716999
0.0602325
0.0482543
0.0374009
0.0285394
0.0218093
0.0169174
0.0134326
0.0109528
0.0091676
0.00787755
0.00882775
0.00759223
0.00695494
0.00720725
0.00895478
0.0132276
0.0214467
0.0350132
0.0544753
0.0786478
0.104293
0.126769
0.141459
0.145308
0.137789
0.121022
0.0990177
0.0762709
0.0562593
0.0406374
0.0294231
0.0217552
0.0165933
0.0130759
0.010606
0.00882775
0.0099624
0.00819019
0.00713896
0.0070993
0.0087848
0.0135665
0.0236358
0.0416897
0.0697984
0.1077
0.151419
0.193358
0.224342
0.236888
0.228121
0.200923
0.162736
0.122487
0.0872029
0.0601933
0.0414227
0.0291097
0.021183
0.0159975
0.0124668
0.0099624
0.0114095
0.00888536
0.00725025
0.00669894
0.00792122
0.0124515
0.0231068
0.0440348
0.0796464
0.132186
0.198694
0.269267
0.328627
0.361322
0.358299
0.3212
0.261634
0.195626
0.136632
0.0914124
0.0603639
0.0404561
0.0280239
0.0201625
0.0149856
0.0114095
0.0133045
0.0097767
0.00741007
0.006194
0.00663242
0.0101449
0.0197411
0.0406032
0.0796243
0.142958
0.231476
0.336
0.436057
0.505342
0.522887
0.483816
0.402181
0.303321
0.211102
0.138974
0.0892015
0.0575124
0.0380592
0.0260668
0.0184152
0.0133045
0.0157211
0.0109241
0.00771935
0.00579555
0.00533743
0.00738349
0.0145878
0.0322492
0.0687806
0.134246
0.235621
0.369213
0.514385
0.635304
0.694406
0.671934
0.577828
0.445712
0.313475
0.205911
0.130152
0.0816168
0.052001
0.0340537
0.0229099
0.0157211
0.018601
0.0123067
0.0082065
0.00562854
0.00438217
0.00497951
0.00930729
0.021819
0.0507455
0.108162
0.206808
0.351968
0.53046
0.704819
0.822765
0.842732
0.759336
0.606877
0.436933
0.290017
0.182724
0.112689
0.0697872
0.0440332
0.0283833
0.018601
0.0217214
0.013815
0.00882319
0.00569229
0.00388368
0.0034066
0.00525277
0.0124733
0.0316439
0.0740653
0.154993
0.287821
0.471924
0.67954
0.854967
0.936963
0.895123
0.750486
0.560057
0.380246
0.241609
0.148156
0.090078
0.0552607
0.0344177
0.0217214
0.0247229
0.0152753
0.00947524
0.00590495
0.00375007
0.00266283
0.00290053
0.00606797
0.016488
0.0427159
0.0984845
0.200434
0.359029
0.563209
0.769092
0.909845
0.93135
0.828773
0.648967
0.456291
0.295943
0.182518
0.110111
0.0663264
0.0402918
0.0247229
0.0271741
0.0164803
0.0100502
0.00616593
0.00381689
0.00245802
0.00192334
0.0027411
0.00713367
0.0204782
0.0526491
0.118284
0.232464
0.39882
0.594036
0.763743
0.844999
0.806445
0.670427
0.494285
0.331425
0.208158
0.126077
0.0753734
0.0451069
0.0271741
0.0286328
0.0172106
0.010427
0.00638204
0.00394995
0.00249815
0.00169327
0.00152476
0.00274908
0.00804198
0.0233379
0.0587387
0.127668
0.240618
0.39243
0.550997
0.663291
0.684818
0.610809
0.477903
0.335588
0.217515
0.133984
0.0804485
0.0479361
0.0286328
0.0287055
0.0172588
0.010484
0.00646892
0.00406159
0.0026116
0.00174706
0.00128948
0.0013332
0.00276306
0.00841877
0.0241495
0.0590337
0.123332
0.22135
0.340797
0.448584
0.504386
0.486885
0.408598
0.304186
0.206184
0.130916
0.0799636
0.0479868
0.0287055
0.0271482
0.0164804
0.0101282
0.00636009
0.00409603
0.00272119
0.0018798
0.00137133
0.00111486
0.0012567
0.00268512
0.00807742
0.0225776
0.0532485
0.106249
0.180423
0.260864
0.321099
0.337747
0.306699
0.244675
0.175578
0.116436
0.0732991
0.0448385
0.0271482
0.024011
0.0148719
0.00933943
0.00603035
0.00402714
0.00279615
0.00202608
0.00153769
0.00123162
0.00108146
0.00124336
0.00249986
0.00709445
0.0190363
0.0429919
0.0814277
0.130187
0.176336
0.203235
0.201099
0.173446
0.13318
0.0933632
0.0613491
0.0387331
0.024011
0.0197359
0.0126297
0.00820641
0.00551633
0.00386533
0.00283316
0.00217022
0.00173223
0.00143633
0.00123795
0.00113774
0.00127582
0.00226664
0.00577483
0.0145394
0.0311081
0.0555832
0.0834267
0.105947
0.114909
0.107925
0.0894726
0.0670162
0.0465204
0.0307006
0.0197359
0.0150843
0.0101293
0.006919
0.00491409
0.00365648
0.00285086
0.00231616
0.00194678
0.00168222
0.00148769
0.00134621
0.00127054
0.00137548
0.00209974
0.00453455
0.0102922
0.020456
0.0341783
0.0480567
0.0574063
0.0590518
0.0532474
0.0430146
0.0319049
0.0223002
0.0150843
0.0108794
0.00780848
0.00570994
0.00434839
0.00346636
0.00288247
0.00247995
0.00218928
0.00197045
0.00180048
0.00166675
0.00156674
0.00152025
0.00161952
0.00215704
0.00376389
0.007227
0.0128179
0.0196403
0.0257091
0.028964
0.0285108
0.025016
0.0200335
0.0150347
0.0108794
0.00770579
0.00601153
0.00477413
0.00392971
0.0033588
0.00296658
0.0026877
0.00248136
0.00232306
0.00219826
0.00209946
0.00202606
0.00198688
0.00200921
0.00216732
0.00263895
0.00372786
0.0057077
0.00850027
0.0114931
0.0137602
0.0145836
0.0138537
0.0120345
0.00980331
0.00770579
0.00575166
0.00488895
0.00421198
0.00372396
0.00338085
0.00314243
0.00297804
0.00286595
0.00279055
0.00274078
0.00271101
0.00270312
0.00272815
0.00280645
0.00296761
0.00325546
0.00373787
0.00449269
0.00553384
0.0067195
0.00775254
0.00831676
0.00825545
0.00764642
0.00672667
0.00575166
0.00486045
0.00439914
0.00402345
0.00374846
0.00356243
0.00345429
0.00341293
0.00342569
0.00347777
0.00355474
0.00364742
0.0037568
0.00389602
0.0040867
0.00434843
0.00468401
0.00507123
0.00547134
0.00584566
0.00615685
0.00635602
0.00638529
0.00620885
0.005845
0.00536515
0.00486045
0.00471548
0.00439093
0.00414488
0.00398971
0.00392792
0.00396483
0.00409935
0.00431815
0.00459571
0.00490147
0.00521115
0.00551647
0.00582773
0.00616563
0.00654252
0.00693891
0.00729106
0.007509
0.00752367
0.00732675
0.00696746
0.0065157
0.00603012
0.00555074
0.00510545
0.00471548
0.00502943
0.00470805
0.0045031
0.00443261
0.00451684
0.00478108
0.00523441
0.00585429
0.00658391
0.00734671
0.00807181
0.00871668
0.00927391
0.00975734
0.0101734
0.010492
0.010638
0.0105197
0.0100871
0.00937509
0.00849544
0.00758337
0.00674472
0.00603463
0.00546588
0.00502943
0.005583
0.00520217
0.00500546
0.00503052
0.00533769
0.00599672
0.00704626
0.00845449
0.0101018
0.0118038
0.0133672
0.0146477
0.0155764
0.0161449
0.0163652
0.0162348
0.0157308
0.014839
0.0135986
0.0121247
0.0105838
0.00913808
0.00789642
0.00690021
0.00613943
0.005583
0.00626176
0.00578205
0.00557301
0.00571889
0.0063574
0.00765724
0.00974647
0.0126181
0.0160611
0.0196757
0.022983
0.0255677
0.0271747
0.0277215
0.0272537
0.0258967
0.0238324
0.0212881
0.0185177
0.0157687
0.0132464
0.0110854
0.00933913
0.00799142
0.00698573
0.00626176

VECTORS u double
-125.555 89.4621 0.0
-122.933 88.888 0.0
-119.619 90.0048 0.0
-115.996 93.247 0.0
-112.656 98.3267 0.0
-110.193 104.17 0.0
-108.761 109.58 0.0
-108.1 113.95 0.0
-107.859 117.232 0.0
-107.812 119.602 0.0
-107.885 121.246 0.0
-108.133 122.285 0.0
-108.697 122.777 0.0
-109.759 122.729 0.0
-111.467 122.118 0.0
-113.861 120.902 0.0
-116.828 119.048 0.0
-120.105 116.548 0.0
-123.338 113.438 0.0
-126.174 109.808 0.0
-128.32 105.812 0.0
-129.583 101.673 0.0
-129.882 97.6729 0.0
-129.248 94.1122 0.0
-127.781 91.2735 0.0
-125.555 89.4621 0.0
-128.14 90.2282 0.0
-125.258 89.574 0.0
-121.599 90.8181 0.0
-117.551 94.6784 0.0
-113.919 100.725 0.0
-111.503 107.365 0.0
-110.398 113.102 0.0
-110.159 117.445 0.0
-110.337 120.567 0.0
-110.685 122.769 0.0
-111.135 124.275 0.0
-111.742 125.208 0.0
-112.638 125.618 0.0
-113.979 125.506 0.0
-115.878 124.846 0.0
-118.347 123.592 0.0
-121.255 121.693 0.0
-124.351 119.117 0.0
-127.318 115.872 0.0
-129.849 112.041 0.0
-131.696 107.792 0.0
-132.696 103.378 0.0
-132.794 99.1098 0.0
-132.034 95.3043 0.0
-130.52 92.2405 0.0
-128.14 90.2282 0.0
-130.848 90.7278 0.0
-127.793 89.7576 0.0
-123.828 90.9141 0.0
-119.298 95.1735 0.0
-115.238 102.067 0.0
-112.738 109.426 0.0
-111.843 115.431 0.0
-111.916 119.757 0.0
-112.417 122.792 0.0
-113.085 124.93 0.0
-113.856 126.412 0.0
-114.787 127.349 0.0
-115.999 127.779 0.0
-117.632 127.699 0.0
-119.779 127.08 0.0
-122.423 125.878 0.0
-125.412 124.035 0.0
-128.476 121.49 0.0
-131.301 118.216 0.0
-133.603 114.265 0.0
-135.176 109.807 0.0
-135.908 105.128 0.0
-135.784 100.574 0.0
-134.873 96.4767 0.0
-133.273 93.0976 0.0
-130.848 90.7278 0.0
-133.502 91.0075 0.0
-130.434 89.5112 0.0
-126.306 90.2383 0.0
-121.3 94.5308 0.0
-116.646 102.115 0.0
-113.866 110.217 0.0
-113.037 116.556 0.0
-113.32 120.949 0.0
-114.069 123.993 0.0
-114.996 126.167 0.0
-116.038 127.722 0.0
-117.248 128.757 0.0
-118.741 129.292 0.0
-120.645 129.316 0.0
-123.042 128.8 0.0
-125.902 127.705 0.0
-129.056 125.975 0.0
-132.214 123.541 0.0
-135.042 120.339 0.0
-137.243 116.376 0.0
-138.628 111.792 0.0
-139.125 106.883 0.0
-138.772 102.036 0.0
-137.68 97.603 0.0
-135.965 93.8396 0.0
-133.502 91.0075 0.0
-136.05 91.0979 0.0
-133.086 88.9364 0.0
-128.994 88.861 0.0
-123.637 92.6536 0.0
-118.231 100.681 0.0
-114.909 109.652 0.0
-113.976 116.501 0.0
-114.378 121.081 0.0
-115.317 124.219 0.0
-116.463 126.503 0.0
-117.738 128.201 0.0
-119.191 129.404 0.0
-120.929 130.113 0.0
-123.069 130.303 0.0
-125.689 129.94 0.0
-128.754 128.987 0.0
-132.09 127.399 0.0
-135.398 125.11 0.0
-138.32 122.043 0.0
-140.537 118.16 0.0
-141.84 113.552 0.0
-142.174 108.491 0.0
-141.622 103.38 0.0
-140.351 98.6066 0.0
-138.521 94.4354 0.0
-136.05 91.0979 0.0
-138.37 90.9755 0.0
-135.578 88.1229 0.0
-131.745 86.9802 0.0
-126.339 89.6095 0.0
-120.139 97.584 0.0
-115.942 107.61 0.0
-114.688 115.27 0.0
-115.114 120.194 0.0
-116.199 123.497 0.0
-117.534 125.928 0.0
-119.021 127.804 0.0
-120.695 129.214 0.0
-122.651 130.146 0.0
-124.999 130.553 0.0
-127.806 130.386 0.0
-131.042 129.606 0.0
-134.535 128.174 0.0
-137.984 126.034 0.0
-141.022 123.116 0.0
-143.308 119.361 0.0
-144.609 114.812 0.0
-144.861 109.696 0.0
-144.172 104.401 0.0
-142.758 99.3375 0.0
-140.832 94.7918 0.0
-138.37 90.9755 0.0
-140.316 90.5731 0.0
-137.691 87.1281 0.0
-134.254 84.8939 0.0
-129.245 85.7649 0.0
-122.528 92.7292 0.0
-117.114 103.856 0.0
-115.224 112.815 0.0
-115.555 118.328 0.0
-116.739 121.869 0.0
-118.241 124.458 0.0
-119.924 126.508 0.0
-121.806 128.129 0.0
-123.967 129.3 0.0
-126.502 129.954 0.0
-129.471 130.02 0.0
-132.843 129.441 0.0
-136.452 128.177 0.0
-140.004 126.184 0.0
-143.132 123.405 0.0
-145.485 119.783 0.0
-146.814 115.338 0.0
-147.04 110.25 0.0
-146.279 104.874 0.0
-144.774 99.6167 0.0
-142.776 94.7803 0.0
-140.316 90.5731 0.0
-141.781 89.8485 0.0
-139.252 85.9851 0.0
-136.173 82.893 0.0
-131.889 81.8514 0.0
-125.382 86.4303 0.0
-118.645 98.0149 0.0
-115.668 108.961 0.0
-115.727 115.515 0.0
-116.954 119.423 0.0
-118.595 122.173 0.0
-120.457 124.366 0.0
-122.533 126.166 0.0
-124.887 127.56 0.0
-127.598 128.463 0.0
-130.712 128.778 0.0
-134.193 128.425 0.0
-137.884 127.349 0.0
-141.499 125.509 0.0
-144.679 122.862 0.0
-147.075 119.369 0.0
-148.429 115.046 0.0
-148.655 110.045 0.0
-147.865 104.682 0.0
-146.31 99.3407 0.0
-144.262 94.325 0.0
-141.781 89.8485 0.0
-142.724 88.8659 0.0
-140.203 84.7663 0.0
-137.307 81.1634 0.0
-133.688 78.6704 0.0
-128.178 79.9442 0.0
-120.749 89.8321 0.0
-116.155 103.251 0.0
-115.654 111.705 0.0
-116.852 116.279 0.0
-118.6 119.235 0.0
-120.614 121.532 0.0
-122.864 123.456 0.0
-125.395 125.023 0.0
-128.267 126.146 0.0
-131.512 126.707 0.0
-135.087 126.596 0.0
-138.835 125.732 0.0
-142.484 124.067 0.0
-145.688 121.567 0.0
-148.105 118.212 0.0
-149.478 114.032 0.0
-149.716 109.163 0.0
-148.92 103.891 0.0
-147.34 98.5663 0.0
-145.249 93.4847 0.0
-142.724 88.8659 0.0
-143.157 87.8154 0.0
-140.575 83.634 0.0
-137.685 79.8183 0.0
-134.385 76.5952 0.0
-129.952 75.1586 0.0
-123.19 80.3882 0.0
-116.871 94.8138 0.0
-115.339 106.552 0.0
-116.417 112.501 0.0
-118.251 115.842 0.0
-120.391 118.242 0.0
-122.784 120.231 0.0
-125.465 121.903 0.0
-128.477 123.192 0.0
-131.837 123.969 0.0
-135.49 124.099 0.0
-139.282 123.472 0.0
-142.95 122.018 0.0
-146.163 119.703 0.0
-148.592 116.524 0.0
-149.987 112.523 0.0
-150.25 107.837 0.0
-149.469 102.723 0.0
-147.877 97.5036 0.0
-145.747 92.4591 0.0
-143.157 87.8154 0.0
-143.119 86.9461 0.0
-140.437 82.8041 0.0
-137.442 78.9716 0.0
-134.151 75.5509 0.0
-130.232 72.8765 0.0
-124.787 73.2068 0.0
-117.874 83.3966 0.0
-114.706 98.9777 0.0
-115.554 107.857 0.0
-117.513 112.121 0.0
-119.783 114.737 0.0
-122.293 116.768 0.0
-125.087 118.482 0.0
-128.207 119.868 0.0
-131.657 120.81 0.0
-135.373 121.159 0.0
-139.198 120.78 0.0
-142.877 119.577 0.0
-146.095 117.502 0.0
-148.539 114.556 0.0
-149.967 110.794 0.0
-150.275 106.352 0.0
-149.532 101.465 0.0
-147.949 96.4308 0.0
-145.785 91.5138 0.0
-143.119 86.9461 0.0
-142.656 86.4598 0.0
-139.857 82.4447 0.0
-136.706 78.7105 0.0
-133.266 75.3502 0.0
-129.371 72.44 0.0
-124.615 70.544 0.0
-118.43 73.2733 0.0
-113.522 87.3292 0.0
-113.891 101.268 0.0
-116.211 107.875 0.0
-118.735 111.14 0.0
-121.385 113.3 0.0
-124.272 115.029 0.0
-127.465 116.452 0.0
-130.973 117.496 0.0
-134.728 118.023 0.0
-138.571 117.883 0.0
-142.255 116.957 0.0
-145.479 115.175 0.0
-147.944 112.53 0.0
-149.419 109.076 0.0
-149.796 104.947 0.0
-149.121 100.36 0.0
-147.575 95.5838 0.0
-145.394 90.8715 0.0
-142.656 86.4598 0.0
-141.806 86.4297 0.0
-138.891 82.5951 0.0
-135.562 79.0184 0.0
-131.912 75.8155 0.0
-127.836 73.03 0.0
-123.138 70.7802 0.0
-117.525 69.8505 0.0
-111.644 74.8925 0.0
-110.469 90.3094 0.0
-113.684 102.007 0.0
-116.991 107.214 0.0
-119.988 109.892 0.0
-123.017 111.721 0.0
-126.272 113.158 0.0
-129.81 114.252 0.0
-133.577 114.903 0.0
-137.42 114.971 0.0
-141.1 114.322 0.0
-144.327 112.867 0.0
-146.818 110.577 0.0
-148.352 107.497 0.0
-148.819 103.748 0.0
-148.242 99.526 0.0
-146.767 95.0741 0.0
-144.598 90.6285 0.0
-141.806 86.4297 0.0
-140.59 86.784 0.0
-137.569 83.1546 0.0
-134.055 79.7568 0.0
-130.171 76.7379 0.0
-125.853 74.162 0.0
-121.005 72.0932 0.0
-115.52 70.6616 0.0
-109.501 70.7249 0.0
-105.241 77.0108 0.0
-108.115 91.7637 0.0
-113.559 101.782 0.0
-117.727 106.22 0.0
-121.208 108.534 0.0
-124.618 110.081 0.0
-128.197 111.213 0.0
-131.962 111.945 0.0
-135.788 112.174 0.0
-139.451 111.775 0.0
-142.676 110.646 0.0
-145.194 108.738 0.0
-146.793 106.074 0.0
-147.363 102.754 0.0
-146.906 98.9475 0.0
-145.533 94.8691 0.0
-143.41 90.7352 0.0
-140.59 86.784 0.0
-139.008 87.3528 0.0
-135.894 83.9341 0.0
-132.19 80.7169 0.0
-128.058 77.8845 0.0
-123.495 75.5353 0.0
-118.488 73.7471 0.0
-113.051 72.5661 0.0
-107.282 72.0634 0.0
-101.701 72.9046 0.0
-99.5624 79.0101 0.0
-105.728 92.0466 0.0
-113.172 101.003 0.0
-118.286 105.043 0.0
-122.309 107.106 0.0
-126.088 108.387 0.0
-129.897 109.2 0.0
-133.713 109.553 0.0
-137.355 109.362 0.0
-140.573 108.528 0.0
-143.114 106.991 0.0
-144.778 104.751 0.0
-145.454 101.879 0.0
-145.129 98.5127 0.0
-143.879 94.8355 0.0
-141.829 91.0393 0.0
-139.008 87.3528 0.0
-137.022 87.9367 0.0
-133.825 84.726 0.0
-129.929 81.6892 0.0
-125.556 79.0501 0.0
-120.784 76.9476 0.0
-115.702 75.4786 0.0
-110.416 74.6711 0.0
-105.057 74.482 0.0
-99.811 74.8461 0.0
-95.2479 76.1184 0.0
-94.6315 81.0796 0.0
-102.807 91.7715 0.0
-112.213 99.9027 0.0
-118.481 103.719 0.0
-123.136 105.586 0.0
-127.253 106.608 0.0
-131.159 107.098 0.0
-134.818 107.081 0.0