# vtk DataFile Version 2.0
Particulate Flow Equations Solution
ASCII
DATASET STRUCTURED_GRID
DIMENSIONS 26 26 1
POINTS 676 double
-10 -10 0
-9.23077 -10 0
-8.46154 -10 0
-7.69231 -10 0
-6.92308 -10 0
-6.15385 -10 0
-5.38462 -10 0
-4.61538 -10 0
-3.84615 -10 0
-3.07692 -10 0
-2.30769 -10 0
-1.53846 -10 0
-0.769231 -10 0
5.55112e-016 -10 0
0.769231 -10 0
1.53846 -10 0
2.30769 -10 0
3.07692 -10 0
3.84615 -10 0
4.61538 -10 0
5.38462 -10 0
6.15385 -10 0
6.92308 -10 0
7.69231 -10 0
8.46154 -10 0
10 -10 0
-10 -9.23077 0
-9.23077 -9.23077 0
-8.46154 -9.23077 0
-7.69231 -9.23077 0
-6.92308 -9.23077 0
-6.15385 -9.23077 0
-5.38462 -9.23077 0
-4.61538 -9.23077 0
-3.84615 -9.23077 0
-3.07692 -9.23077 0
-2.30769 -9.23077 0
-1.53846 -9.23077 0
-0.769231 -9.23077 0
5.55112e-016 -9.23077 0
0.769231 -9.23077 0
1.53846 -9.23077 0
2.30769 -9.23077 0
3.07692 -9.23077 0
3.84615 -9.23077 0
4.61538 -9.23077 0
5.38462 -9.23077 0
6.15385 -9.23077 0
6.92308 -9.23077 0
7.69231 -9.23077 0
8.46154 -9.23077 0
10 -9.23077 0
-10 -8.46154 0
-9.23077 -8.46154 0
-8.46154 -8.46154 0
-7.69231 -8.46154 0
-6.92308 -8.46154 0
-6.15385 -8.46154 0
-5.38462 -8.46154 0
-4.61538 -8.46154 0
-3.84615 -8.46154 0
-3.07692 -8.46154 0
-2.30769 -8.46154 0
-1.53846 -8.46154 0
-0.769231 -8.46154 0
5.55112e-016 -8.46154 0
0.769231 -8.46154 0
1.53846 -8.46154 0
2.30769 -8.46154 0
3.07692 -8.46154 0
3.84615 -8.46154 0
4.61538 -8.46154 0
5.38462 -8.46154 0
6.15385 -8.46154 0
6.92308 -8.46154 0
7.69231 -8.46154 0
8.46154 -8.46154 0
10 -8.46154 0
-10 -7.69231 0
-9.23077 -7.69231 0
-8.46154 -7.69231 0
-7.69231 -7.69231 0
-6.92308 -7.69231 0
-6.15385 -7.69231 0
-5.38462 -7.69231 0
-4.61538 -7.69231 0
-3.84615 -7.69231 0
-3.07692 -7.69231 0
-2.30769 -7.69231 0
-1.53846 -7.69231 0
-0.769231 -7.69231 0
5.55112e-016 -7.69231 0
0.769231 -7.69231 0
1.53846 -7.69231 0
2.30769 -7.69231 0
3.07692 -7.69231 0
3.84615 -7.69231 0
4.61538 -7.69231 0
5.38462 -7.69231 0
6.15385 -7.69231 0
6.92308 -7.69231 0
7.69231 -7.69231 0
8.46154 -7.69231 0
10 -7.69231 0
-10 -6.92308 0
-9.23077 -6.92308 0
-8.46154 -6.92308 0
-7.69231 -6.92308 0
-6.92308 -6.92308 0
-6.15385 -6.92308 0
-5.38462 -6.92308 0
-4.61538 -6.92308 0
-3.84615 -6.92308 0
-3.07692 -6.92308 0
-2.30769 -6.92308 0
-1.53846 -6.92308 0
-0.769231 -6.92308 0
5.55112e-016 -6.92308 0
0.769231 -6.92308 0
1.53846 -6.92308 0
2.30769 -6.92308 0
3.07692 -6.92308 0
3.84615 -6.92308 0
4.61538 -6.92308 0
5.38462 -6.92308 0
6.15385 -6.92308 0
6.92308 -6.92308 0
7.69231 -6.92308 0
8.46154 -6.92308 0
10 -6.92308 0
-10 -6.15385 0
-9.23077 -6.15385 0
-8.46154 -6.15385 0
-7.69231 -6.15385 0
-6.92308 -6.15385 0
-6.15385 -6.15385 0
-5.38462 -6.15385 0
-4.61538 -6.15385 0
-3.84615 -6.15385 0
-3.07692 -6.15385 0
-2.30769 -6.15385 0
-1.53846 -6.15385 0
-0.769231 -6.15385 0
5.55112e-016 -6.15385 0
0.769231 -6.15385 0
1.53846 -6.15385 0
2.30769 -6.15385 0
3.07692 -6.15385 0
3.84615 -6.15385 0
4.61538 -6.15385 0
5.38462 -6.15385 0
6.15385 -6.15385 0
6.92308 -6.15385 0
7.69231 -6.15385 0
8.46154 -6.15385 0
10 -6.15385 0
-10 -5.38462 0
-9.23077 -5.38462 0
-8.46154 -5.38462 0
-7.69231 -5.38462 0
-6.92308 -5.38462 0
-6.15385 -5.38462 0
-5.38462 -5.38462 0
-4.61538 -5.38462 0
-3.84615 -5.38462 0
-3.07692 -5.38462 0
-2.30769 -5.38462 0
-1.53846 -5.38462 0
-0.769231 -5.38462 0
5.55112e-016 -5.38462 0
0.769231 -5.38462 0
1.53846 -5.38462 0
2.30769 -5.38462 0
3.07692 -5.38462 0
3.84615 -5.38462 0
4.61538 -5.38462 0
5.38462 -5.38462 0
6.15385 -5.38462 0
6.92308 -5.38462 0
7.69231 -5.38462 0
8.46154 -5.38462 0
10 -5.38462 0
-10 -4.61538 0
-9.23077 -4.61538 0
-8.46154 -4.61538 0
-7.69231 -4.61538 0
-6.92308 -4.61538 0
-6.15385 -4.61538 0
-5.38462 -4.61538 0
-4.61538 -4.61538 0
-3.84615 -4.61538 0
-3.07692 -4.61538 0
-2.30769 -4.61538 0
-1.53846 -4.61538 0
-0.769231 -4.61538 0
5.55112e-016 -4.61538 0
0.769231 -4.61538 0
1.53846 -4.61538 0
2.30769 -4.61538 0
3.07692 -4.61538 0
3.84615 -4.61538 0
4.61538 -4.61538 0
5.38462 -4.61538 0
6.15385 -4.61538 0
6.92308 -4.61538 0
7.69231 -4.61538 0
8.46154 -4.61538 0
10 -4.61538 0
-10 -3.84615 0
-9.23077 -3.84615 0
-8.46154 -3.84615 0
-7.69231 -3.84615 0
-6.92308 -3.84615 0
-6.15385 -3.84615 0
-5.38462 -3.84615 0
-4.61538 -3.84615 0
-3.84615 -3.84615 0
-3.07692 -3.84615 0
-2.30769 -3.84615 0
-1.53846 -3.84615 0
-0.769231 -3.84615 0
5.55112e-016 -3.84615 0
0.769231 -3.84615 0
1.53846 -3.84615 0
2.30769 -3.84615 0
3.07692 -3.84615 0
3.84615 -3.84615 0
4.61538 -3.84615 0
5.38462 -3.84615 0
6.15385 -3.84615 0
6.92308 -3.84615 0
7.69231 -3.84615 0
8.46154 -3.84615 0
10 -3.84615 0
-10 -3.07692 0
-9.23077 -3.07692 0
-8.46154 -3.07692 0
-7.69231 -3.07692 0
-6.92308 -3.07692 0
-6.15385 -3.07692 0
-5.38462 -3.07692 0
-4.61538 -3.07692 0
-3.84615 -3.07692 0
-3.07692 -3.07692 0
-2.30769 -3.07692 0
-1.53846 -3.07692 0
-0.769231 -3.07692 0
5.55112e-016 -3.07692 0
0.769231 -3.07692 0
1.53846 -3.07692 0
2.30769 -3.07692 0
3.07692 -3.07692 0
3.84615 -3.07692 0
4.61538 -3.07692 0
5.38462 -3.07692 0
6.15385 -3.07692 0
6.92308 -3.07692 0
7.69231 -3.07692 0
8.46154 -3.07692 0
10 -3.07692 0
-10 -2.30769 0
-9.23077 -2.30769 0
-8.46154 -2.30769 0
-7.69231 -2.30769 0
-6.92308 -2.30769 0
-6.15385 -2.30769 0
-5.38462 -2.30769 0
-4.61538 -2.30769 0
-3.84615 -2.30769 0
-3.07692 -2.30769 0
-2.30769 -2.30769 0
-1.53846 -2.30769 0
-0.769231 -2.30769 0
5.55112e-016 -2.30769 0
0.769231 -2.30769 0
1.53846 -2.30769 0
2.30769 -2.30769 0
3.07692 -2.30769 0
3.84615 -2.30769 0
4.61538 -2.30769 0
5.38462 -2.30769 0
6.15385 -2.30769 0
6.92308 -2.30769 0
7.69231 -2.30769 0
8.46154 -2.30769 0
10 -2.30769 0
-10 -1.53846 0
-9.23077 -1.53846 0
-8.46154 -1.53846 0
-7.69231 -1.53846 0
-6.92308 -1.53846 0
-6.15385 -1.53846 0
-5.38462 -1.53846 0
-4.61538 -1.53846 0
-3.84615 -1.53846 0
-3.07692 -1.53846 0
-2.30769 -1.53846 0
-1.53846 -1.53846 0
-0.769231 -1.53846 0
5.55112e-016 -1.53846 0
0.769231 -1.53846 0
1.53846 -1.53846 0
2.30769 -1.53846 0
3.07692 -1.53846 0
3.84615 -1.53846 0
4.61538 -1.53846 0
5.38462 -1.53846 0
6.15385 -1.53846 0
6.92308 -1.53846 0
7.69231 -1.53846 0
8.46154 -1.53846 0
10 -1.53846 0
-10 -0.769231 0
-9.23077 -0.769231 0
-8.46154 -0.769231 0
-7.69231 -0.769231 0
-6.92308 -0.769231 0
-6.15385 -0.769231 0
-5.38462 -0.769231 0
-4.61538 -0.769231 0
-3.84615 -0.769231 0
-3.07692 -0.769231 0
-2.30769 -0.769231 0
-1.53846 -0.769231 0
-0.769231 -0.769231 0
5.55112e-016 -0.769231 0
0.769231 -0.769231 0
1.53846 -0.769231 0
2.30769 -0.769231 0
3.07692 -0.769231 0
3.84615 -0.769231 0
4.61538 -0.769231 0
5.38462 -0.769231 0
6.15385 -0.769231 0
6.92308 -0.769231 0
7.69231 -0.769231 0
8.46154 -0.769231 0
10 -0.769231 0
-10 5.55112e-016 0
-9.23077 5.55112e-016 0
-8.46154 5.55112e-016 0
-7.69231 5.55112e-016 0
-6.92308 5.55112e-016 0
-6.15385 5.55112e-016 0
-5.38462 5.55112e-016 0
-4.61538 5.55112e-016 0
-3.84615 5.55112e-016 0
-3.07692 5.55112e-016 0
-2.30769 5.55112e-016 0
-1.53846 5.55112e-016 0
-0.769231 5.55112e-016 0
5.55112e-016 5.55112e-016 0
0.769231 5.55112e-016 0
1.53846 5.55112e-016 0
2.30769 5.55112e-016 0
3.07692 5.55112e-016 0
3.84615 5.55112e-016 0
4.61538 5.55112e-016 0
5.38462 5.55112e-016 0
6.15385 5.55112e-016 0
6.92308 5.55112e-016 0
7.69231 5.55112e-016 0
8.46154 5.55112e-016 0
10 5.55112e-016 0
-10 0.769231 0
-9.23077 0.769231 0
-8.46154 0.769231 0
-7.69231 0.769231 0
-6.92308 0.769231 0
-6.15385 0.769231 0
-5.38462 0.769231 0
-4.61538 0.769231 0
-3.84615 0.769231 0
-3.07692 0.769231 0
-2.30769 0.769231 0
-1.53846 0.769231 0
-0.769231 0.769231 0
5.55112e-016 0.769231 0
0.769231 0.769231 0
1.53846 0.769231 0
2.30769 0.769231 0
3.07692 0.769231 0
3.84615 0.769231 0
4.61538 0.769231 0
5.38462 0.769231 0
6.15385 0.769231 0
6.92308 0.769231 0
7.69231 0.769231 0
8.46154 0.769231 0
10 0.769231 0
-10 1.53846 0
-9.23077 1.53846 0
-8.46154 1.53846 0
-7.69231 1.53846 0
-6.92308 1.53846 0
-6.15385 1.53846 0
-5.38462 1.53846 0
-4.61538 1.53846 0
-3.84615 1.53846 0
-3.07692 1.53846 0
-2.30769 1.53846 0
-1.53846 1.53846 0
-0.769231 1.53846 0
5.55112e-016 1.53846 0
0.769231 1.53846 0
1.53846 1.53846 0
2.30769 1.53846 0
3.07692 1.53846 0
3.84615 1.53846 0
4.61538 1.53846 0
5.38462 1.53846 0
6.15385 1.53846 0
6.92308 1.53846 0
7.69231 1.53846 0
8.46154 1.53846 0
10 1.53846 0
-10 2.30769 0
-9.23077 2.30769 0
-8.46154 2.30769 0
-7.69231 2.30769 0
-6.92308 2.30769 0
-6.15385 2.30769 0
-5.38462 2.30769 0
-4.61538 2.30769 0
-3.84615 2.30769 0
-3.07692 2.30769 0
-2.30769 2.30769 0
-1.53846 2.30769 0
-0.769231 2.30769 0
5.55112e-016 2.30769 0
0.769231 2.30769 0
1.53846 2.30769 0
2.30769 2.30769 0
3.07692 2.30769 0
3.84615 2.30769 0
4.61538 2.30769 0
5.38462 2.30769 0
6.15385 2.30769 0
6.92308 2.30769 0
7.69231 2.30769 0
8.46154 2.30769 0
10 2.30769 0
-10 3.07692 0
-9.23077 3.07692 0
-8.46154 3.07692 0
-7.69231 3.07692 0
-6.92308 3.07692 0
-6.15385 3.07692 0
-5.38462 3.07692 0
-4.61538 3.07692 0
-3.84615 3.07692 0
-3.07692 3.07692 0
-2.30769 3.07692 0
-1.53846 3.07692 0
-0.769231 3.07692 0
5.55112e-016 3.07692 0
0.769231 3.07692 0
1.53846 3.07692 0
2.30769 3.07692 0
3.07692 3.07692 0
3.84615 3.07692 0
4.61538 3.07692 0
5.38462 3.07692 0
6.15385 3.07692 0
6.92308 3.07692 0
7.69231 3.07692 0
8.46154 3.07692 0
10 3.07692 0
-10 3.84615 0
-9.23077 3.84615 0
-8.46154 3.84615 0
-7.69231 3.84615 0
-6.92308 3.84615 0
-6.15385 3.84615 0
-5.38462 3.84615 0
-4.61538 3.84615 0
-3.84615 3.84615 0
-3.07692 3.84615 0
-2.30769 3.84615 0
-1.53846 3.84615 0
-0.769231 3.84615 0
5.55112e-016 3.84615 0
0.769231 3.84615 0
1.53846 3.84615 0
2.30769 3.84615 0
3.07692 3.84615 0
3.84615 3.84615 0
4.61538 3.84615 0
5.38462 3.84615 0
6.15385 3.84615 0
6.92308 3.84615 0
7.69231 3.84615 0
8.46154 3.84615 0
10 3.84615 0
-10 4.61538 0
-9.23077 4.61538 0
-8.46154 4.61538 0
-7.69231 4.61538 0
-6.92308 4.61538 0
-6.15385 4.61538 0
-5.38462 4.61538 0
-4.61538 4.61538 0
-3.84615 4.61538 0
-3.07692 4.61538 0
-2.30769 4.61538 0
-1.53846 4.61538 0
-0.769231 4.61538 0
5.55112e-016 4.61538 0
0.769231 4.61538 0
1.53846 4.61538 0
2.30769 4.61538 0
3.07692 4.61538 0
3.84615 4.61538 0
4.61538 4.61538 0
5.38462 4.61538 0
6.15385 4.61538 0
6.92308 4.61538 0
7.69231 4.61538 0
8.46154 4.61538 0
10 4.61538 0
-10 5.38462 0
-9.23077 5.38462 0
-8.46154 5.38462 0
-7.69231 5.38462 0
-6.92308 5.38462 0
-6.15385 5.38462 0
-5.38462 5.38462 0
-4.61538 5.38462 0
-3.84615 5.38462 0
-3.07692 5.38462 0
-2.30769 5.38462 0
-1.53846 5.38462 0
-0.769231 5.38462 0
5.55112e-016 5.38462 0
0.769231 5.38462 0
1.53846 5.38462 0
2.30769 5.38462 0
3.07692 5.38462 0
3.84615 5.38462 0
4.61538 5.38462 0
5.38462 5.38462 0
6.15385 5.38462 0
6.92308 5.38462 0
7.69231 5.38462 0
8.46154 5.38462 0
10 5.38462 0
-10 6.15385 0
-9.23077 6.15385 0
-8.46154 6.15385 0
-7.69231 6.15385 0
-6.92308 6.15385 0
-6.15385 6.15385 0
-5.38462 6.15385 0
-4.61538 6.15385 0
-3.84615 6.15385 0
-3.07692 6.15385 0
-2.30769 6.15385 0
-1.53846 6.15385 0
-0.769231 6.15385 0
5.55112e-016 6.15385 0
0.769231 6.15385 0
1.53846 6.15385 0
2.30769 6.15385 0
3.07692 6.15385 0
3.84615 6.15385 0
4.61538 6.15385 0
5.38462 6.15385 0
6.15385 6.15385 0
6.92308 6.15385 0
7.69231 6.15385 0
8.46154 6.15385 0
10 6.15385 0
-10 6.92308 0
-9.23077 6.92308 0
-8.46154 6.92308 0
-7.69231 6.92308 0
-6.92308 6.92308 0
-6.15385 6.92308 0
-5.38462 6.92308 0
-4.61538 6.92308 0
-3.84615 6.92308 0
-3.07692 6.92308 0
-2.30769 6.92308 0
-1.53846 6.92308 0
-0.769231 6.92308 0
5.55112e-016 6.92308 0
0.769231 6.92308 0
1.53846 6.92308 0
2.30769 6.92308 0
3.07692 6.92308 0
3.84615 6.92308 0
4.61538 6.92308 0
5.38462 6.92308 0
6.15385 6.92308 0
6.92308 6.92308 0
7.69231 6.92308 0
8.46154 6.92308 0
10 6.92308 0
-10 7.69231 0
-9.23077 7.69231 0
-8.46154 7.69231 0
-7.69231 7.69231 0
-6.92308 7.69231 0
-6.15385 7.69231 0
-5.38462 7.69231 0
-4.61538 7.69231 0
-3.84615 7.69231 0
-3.07692 7.69231 0
-2.30769 7.69231 0
-1.53846 7.69231 0
-0.769231 7.69231 0
5.55112e-016 7.69231 0
0.769231 7.69231 0
1.53846 7.69231 0
2.30769 7.69231 0
3.07692 7.69231 0
3.84615 7.69231 0
4.61538 7.69231 0
5.38462 7.69231 0
6.15385 7.69231 0
6.92308 7.69231 0
7.69231 7.69231 0
8.46154 7.69231 0
10 7.69231 0
-10 8.46154 0
-9.23077 8.46154 0
-8.46154 8.46154 0
-7.69231 8.46154 0
-6.92308 8.46154 0
-6.15385 8.46154 0
-5.38462 8.46154 0
-4.61538 8.46154 0
-3.84615 8.46154 0
-3.07692 8.46154 0
-2.30769 8.46154 0
-1.53846 8.46154 0
-0.769231 8.46154 0
5.55112e-016 8.46154 0
0.769231 8.46154 0
1.53846 8.46154 0
2.30769 8.46154 0
3.07692 8.46154 0
3.84615 8.46154 0
4.61538 8.46154 0
5.38462 8.46154 0
6.15385 8.46154 0
6.92308 8.46154 0
7.69231 8.46154 0
8.46154 8.46154 0
10 8.46154 0
-10 10 0
-9.23077 10 0
-8.46154 10 0
-7.69231 10 0
-6.92308 10 0
-6.15385 10 0
-5.38462 10 0
-4.61538 10 0
-3.84615 10 0
-3.07692 10 0
-2.30769 10 0
-1.53846 10 0
-0.769231 10 0
5.55112e-016 10 0
0.769231 10 0
1.53846 10 0
2.30769 10 0
3.07692 10 0
3.84615 10 0
4.61538 10 0
5.38462 10 0
6.15385 10 0
6.92308 10 0
7.69231 10 0
8.46154 10 0
10 10 0

POINT_DATA 676
SCALARS h double 1
LOOkUP_TABLE default
0.200869
0.302362
0.397831
0.457544
0.461177
0.410325
0.326189
0.235559
0.15766
0.0999723
0.0614043
0.0372927
0.0227913
0.0142084
0.0091241
0.00607681
0.00422212
0.00309253
0.00248709
0.00255659
0.00429782
0.0105393
0.0265665
0.0596158
0.116869
0.200869
0.106507
0.17458
0.248811
0.30912
0.335303
0.319312
0.26971
0.205075
0.143007
0.0934262
0.0584757
0.0358458
0.0219595
0.0136779
0.00878147
0.00586955
0.00411115
0.00303
0.00236905
0.00205012
0.0023087
0.00421615
0.0105499
0.026063
0.0565371
0.106507
0.0495028
0.0889922
0.138121
0.18609
0.218113
0.223463
0.201875
0.162934
0.119518
0.0813115
0.0524577
0.0328351
0.0203893
0.0128191
0.0083029
0.00561354
0.00399352
0.00299707
0.00237016
0.00198252
0.00182835
0.00217965
0.00407025
0.00997402
0.0237641
0.0495028
0.0202402
0.04002
0.0680392
0.099847
0.126936
0.1405
0.136474
0.117713
0.0915853
0.0655196
0.0440456
0.0284806
0.0181406
0.0116463
0.00769182
0.00530937
0.00386563
0.00297419
0.00240838
0.00204047
0.00181233
0.00175687
0.00214574
0.00388544
0.00897224
0.0202402
0.00789416
0.0163828
0.0302116
0.0482533
0.0666141
0.079824
0.0836442
0.0774743
0.0643574
0.0488212
0.0345443
0.0233408
0.0154405
0.0102529
0.00699073
0.0049806
0.00374362
0.00297194
0.00247879
0.00215505
0.00194101
0.00181777
0.00183707
0.00224766
0.00377999
0.00789416
0.00396702
0.00716332
0.0131331
0.0220408
0.0325497
0.04194
0.0472901
0.0470677
0.0418888
0.0339007
0.0254636
0.0181728
0.012643
0.00880128
0.00627839
0.00467215
0.00366036
0.00302013
0.00260957
0.00234279
0.00217029
0.00206804
0.00203936
0.00214579
0.0026046
0.00396702
0.00343752
0.00469762
0.00714201
0.011133
0.0164031
0.0218651
0.0259609
0.0274445
0.0260425
0.0224944
0.0180205
0.0136962
0.0101304
0.00748521
0.00565635
0.00444653
0.00366596
0.00316907
0.00285636
0.00266443
0.00255544
0.00251004
0.00252496
0.00261922
0.00286129
0.00343752
0.00428298
0.00500729
0.00617916
0.00799648
0.0104497
0.0131776
0.0155071
0.0167464
0.0165453
0.0150571
0.0128019
0.0103714
0.00819641
0.00647512
0.00522605
0.00437605
0.00382802
0.003495
0.00331061
0.00322863
0.00321994
0.00326991
0.00337707
0.00355355
0.00383109
0.00428298
0.00607737
0.00671319
0.00748066
0.00842868
0.00953479
0.0106763
0.0116137
0.0120698
0.0118662
0.0110219
0.00974108
0.0083079
0.00696915
0.00587198
0.00506506
0.0045328
0.00423056
0.00410695
0.00411434
0.0042134
0.0043759
0.00458672
0.00484461
0.00516099
0.00555861
0.00607737
0.00906152
0.00968185
0.0102438
0.010728
0.0110786
0.0112485
0.0111904
0.0108602
0.0102414
0.00937384
0.00835804
0.00732797
0.00640942
0.00568986
0.005211
0.00497757
0.00496973
0.00515172
0.00547761
0.00589804
0.00636922
0.0068618
0.00736551
0.00788693
0.00844315
0.00906152
0.0138803
0.0143685
0.0145911
0.0145332
0.0141552
0.0134756
0.0125568
0.0114801
0.0103261
0.00916862
0.00807857
0.00712526
0.00637206
0.00587033
0.00565575
0.00574673
0.00614105
0.00680932
0.00769076
0.00869943
0.00974297
0.0107459
0.0116646
0.0124865
0.0132179
0.0138803
0.021652
0.0217053
0.0211886
0.0201743
0.0187165
0.0169466
0.0150308
0.0131255
0.0113492
0.00977742
0.00845483
0.00741342
0.00668615
0.00631397
0.00634616
0.00683329
0.00780937
0.00926306
0.0111105
0.0131919
0.0153044
0.0172559
0.0189101
0.0201983
0.0211036
0.021652
0.034224
0.033273
0.0312722
0.0285135
0.0252591
0.0218344
0.0185318
0.0155528
0.0129986
0.0108958
0.00923446
0.00800273
0.00721184
0.00690988
0.00718566
0.00815978
0.00995274
0.0126212
0.0160795
0.0200585
0.0241434
0.0278834
0.0309109
0.0330054
0.0340914
0.034224
0.054589
0.0516753
0.0469249
0.0410871
0.0348222
0.0287722
0.0233908
0.0188882
0.0152777
0.0124669
0.0103399
0.00881264
0.00786456
0.00755629
0.00803907
0.00955227
0.0123865
0.0167766
0.0227303
0.0298801
0.0374771
0.044565
0.0502509
0.0539224
0.05533
0.054589
0.0873656
0.0810612
0.0715446
0.0604594
0.0492038
0.0389413
0.0303403
0.0235615
0.0184247
0.0146136
0.0118269
0.0098564
0.00862006
0.00817868
0.00875312
0.0107425
0.0147079
0.0212408
0.0306635
0.0426674
0.0561215
0.0692383
0.0800676
0.0870616
0.0894493
0.0873656
0.13895
0.127545
0.110354
0.0906877
0.0713109
0.0542905
0.0406203
0.0303326
0.0228929
0.0176016
0.0138487
0.0112181
0.00951068
0.00874952
0.00920168
0.0114299
0.0163373
0.0250731
0.0386337
0.0571881
0.0794594
0.102618
0.122922
0.136866
0.142279
0.13895
0.216351
0.198768
0.170442
0.13758
0.105447
0.0777578
0.0561106
0.0403455
0.0293531
0.0218138
0.0166213
0.0130215
0.0106093
0.00930031
0.00934357
0.0114065
0.0167129
0.0270833
0.0445703
0.0705037
0.104215
0.142163
0.178267
0.20562
0.218903
0.216351
0.323304
0.301203
0.259221
0.207969
0.157043
0.113199
0.0793126
0.0551077
0.0386577
0.0277045
0.0203746
0.0153848
0.0119934
0.00990721
0.00925509
0.0106837
0.0155883
0.0263601
0.0462637
0.0784646
0.124132
0.180322
0.239073
0.28896
0.319023
0.323304
0.453262
0.434024
0.379915
0.306836
0.231005
0.164496
0.112876
0.076226
0.0516805
0.0356929
0.0252775
0.0183619
0.0136928
0.0106423
0.00909814
0.00952446
0.0132395
0.0228626
0.0425811
0.0775625
0.131924
0.205421
0.290406
0.371625
0.430572
0.453262
0.582847
0.581065
0.524156
0.431677
0.328001
0.233342
0.158354
0.104733
0.0689568
0.0459748
0.0313396
0.0218886
0.0156469
0.0115143
0.00902711
0.00832281
0.0103847
0.0175962
0.0343747
0.0672289
0.123318
0.206818
0.313812
0.428769
0.526729
0.582847
0.673969
0.707618
0.665904
0.566215
0.439481
0.315922
0.214247
0.140027
0.0901535
0.0582787
0.038316
0.0257575
0.0177019
0.0124462
0.00909869
0.00739586
0.00782272
0.0121335
0.0241935
0.0506212
0.100349
0.181886
0.29758
0.436845
0.573665
0.673969
0.690391
0.7707
0.76484
0.679235
0.544862
0.400294
0.27421
0.178863
0.113584
0.0716788
0.0456664
0.0296396
0.0196521
0.0133103
0.00925922
0.00684145
0.00603583
0.00779923
0.0149012
0.0329129
0.070605
0.138725
0.245532
0.388917
0.549177
0.690391
0.620677
0.742119
0.783675
0.734383
0.615554
0.467382
0.326995
0.215153
0.136115
0.0845977
0.0526037
0.0331434
0.0212991
0.0139895
0.00940961
0.00656632
0.00504644
0.00511022
0.00829002
0.0184658
0.0427443
0.0913994
0.175582
0.301008
0.458853
0.620677
0.487815
0.627971
0.710578
0.708748
0.626946
0.497312
0.359353
0.241207
0.153713
0.0950786
0.05824
0.0358958
0.022498
0.01442
0.00947924
0.00642477
0.00459417
0.00380465
0.00460926
0.00913139
0.0221926
0.0518394
0.108666
0.202317
0.333913
0.487815
0.334523
0.464887
0.566309
0.605042
0.569384
0.476317
0.359225
0.248739
0.161513
0.100559
0.0613298
0.0373265
0.0229965
0.0144807
0.0093753
0.00626976
0.00436949
0.00328138
0.0030161
0.0043879
0.00999367
0.0251686
0.0580148
0.118011
0.21156
0.334523
0.200869
0.302362
0.397831
0.457544
0.461177
0.410325
0.326189
0.235559
0.15766
0.0999723
0.0614043
0.0372927
0.0227913
0.0142084
0.0091241
0.00607681
0.00422212
0.00309253
0.00248709
0.00255659
0.00429782
0.0105393
0.0265665
0.0596158
0.116869
0.200869

VECTORS u double
-134.55 116.7 0.0
-138.119 117.45 0.0
-141.538 117.794 0.0
-144.777 117.753 0.0
-147.676 117.243 0.0
-150.066 116.194 0.0
-151.809 114.559 0.0
-152.818 112.325 0.0
-153.057 109.516 0.0
-152.528 106.206 0.0
-151.259 102.516 0.0
-149.293 98.611 0.0
-146.685 94.6801 0.0
-143.492 90.9097 0.0
-139.771 87.4608 0.0
-135.585 84.4628 0.0
-131.006 82.026 0.0
-126.119 80.3217 0.0
-121.101 80.066 0.0
-117.155 84.232 0.0
-117.551 95.3541 0.0
-121.362 105.583 0.0
-125.195 111.004 0.0
-128.551 113.728 0.0
-131.73 115.379 0.0
-134.55 116.7 0.0
-132.441 114.805 0.0
-135.975 116.05 0.0
-139.364 116.485 0.0
-142.612 116.55 0.0
-145.568 116.169 0.0
-148.06 115.279 0.0
-149.944 113.839 0.0
-151.12 111.839 0.0
-151.538 109.304 0.0
-151.184 106.291 0.0
-150.067 102.902 0.0
-148.209 99.2754 0.0
-145.637 95.5811 0.0
-142.395 92.0039 0.0
-138.543 88.7238 0.0
-134.175 85.9002 0.0
-129.426 83.658 0.0
-124.466 82.085 0.0
-119.476 81.3055 0.0
-114.841 81.994 0.0
-112.463 86.9241 0.0
-115.518 97.3836 0.0
-121.011 106.054 0.0
-125.634 110.598 0.0
-129.463 113.031 0.0
-132.441 114.805 0.0
-129.798 112.424 0.0
-133.604 113.976 0.0
-137.063 114.681 0.0
-140.344 114.943 0.0
-143.339 114.757 0.0
-145.898 114.082 0.0
-147.88 112.887 0.0
-149.182 111.161 0.0
-149.745 108.923 0.0
-149.539 106.224 0.0
-148.556 103.147 0.0
-146.794 99.8114 0.0
-144.258 96.3709 0.0
-140.975 93.0103 0.0
-137.013 89.93 0.0
-132.501 87.3227 0.0
-127.638 85.3395 0.0
-122.652 84.0589 0.0
-117.754 83.4851 0.0
-113.12 83.6445 0.0
-109.235 85.0692 0.0
-108.427 89.9915 0.0
-113.543 98.9869 0.0
-120.435 106.215 0.0
-125.907 110.134 0.0
-129.798 112.424 0.0
-125.176 109.594 0.0
-130.079 111.529 0.0
-134.08 112.549 0.0
-137.628 113.036 0.0
-140.776 113.063 0.0
-143.449 112.623 0.0
-145.539 111.691 0.0
-146.957 110.257 0.0
-147.644 108.33 0.0
-147.562 105.952 0.0
-146.688 103.191 0.0
-145.003 100.152 0.0
-142.493 96.9808 0.0
-139.177 93.8686 0.0
-135.136 91.0408 0.0
-130.547 88.725 0.0
-125.664 87.0937 0.0
-120.761 86.2154 0.0
-116.053 86.0488 0.0
-111.66 86.4891 0.0
-107.679 87.4798 0.0
-104.634 89.3646 0.0
-104.974 93.6233 0.0
-111.285 100.557 0.0
-119.28 106.275 0.0
-125.176 109.594 0.0
-116.796 106.505 0.0
-124.087 108.976 0.0
-129.526 110.327 0.0
-133.872 111.017 0.0
-137.478 111.223 0.0
-140.435 110.985 0.0
-142.725 110.291 0.0
-144.303 109.128 0.0
-145.126 107.496 0.0
-145.164 105.423 0.0
-144.386 102.967 0.0
-142.762 100.223 0.0
-140.274 97.3388 0.0
-136.945 94.5222 0.0
-132.886 92.0326 0.0
-128.322 90.1289 0.0
-123.555 88.9877 0.0
-118.873 88.6456 0.0
-114.471 89.0095 0.0
-110.428 89.9205 0.0
-106.759 91.2226 0.0
-103.521 92.828 0.0
-101.259 94.8799 0.0
-102.18 98.0656 0.0
-108.613 102.565 0.0
-116.796 106.505 0.0
-105.699 105.469 0.0
-114.376 107.339 0.0
-122.061 108.568 0.0
-128.082 109.235 0.0
-132.753 109.471 0.0
-136.377 109.322 0.0
-139.099 108.779 0.0
-140.973 107.818 0.0
-142.01 106.428 0.0
-142.205 104.62 0.0
-141.542 102.441 0.0
-139.995 99.9857 0.0
-137.558 97.4162 0.0
-134.277 94.9733 0.0
-130.307 92.9546 0.0
-125.917 91.6357 0.0
-121.427 91.1653 0.0
-117.111 91.515 0.0
-113.125 92.523 0.0
-109.516 93.9818 0.0
-106.271 95.7063 0.0
-103.38 97.56 0.0
-100.939 99.4523 0.0
-99.4568 101.35 0.0
-100.563 103.337 0.0
-105.699 105.469 0.0
-100.525 108.837 0.0
-105.628 109.15 0.0
-112.753 109.073 0.0
-119.972 108.843 0.0
-126.059 108.534 0.0
-130.797 108.098 0.0
-134.303 107.451 0.0
-136.715 106.516 0.0
-138.127 105.24 0.0
-138.589 103.609 0.0
-138.121 101.657 0.0
-136.728 99.4831 0.0
-134.434 97.2796 0.0
-131.327 95.33 0.0
-127.601 93.9628 0.0
-123.549 93.4372 0.0
-119.485 93.8294 0.0
-115.651 95.0132 0.0
-112.168 96.7443 0.0
-109.061 98.7682 0.0
-106.307 100.884 0.0
-103.891 102.957 0.0
-101.85 104.896 0.0
-100.328 106.612 0.0
-99.7193 107.974 0.0
-100.525 108.837 0.0
-101.739 113.629 0.0
-104.289 113.484 0.0
-108.351 112.597 0.0
-113.76 111.221 0.0
-119.532 109.733 0.0
-124.729 108.346 0.0
-128.884 107.054 0.0
-131.888 105.744 0.0
-133.776 104.302 0.0
-134.612 102.661 0.0
-134.449 100.829 0.0
-133.326 98.9144 0.0
-131.306 97.1381 0.0
-128.511 95.8212 0.0
-125.16 95.2933 0.0
-121.553 95.7496 0.0
-117.99 97.1476 0.0
-114.693 99.237 0.0
-111.762 101.686 0.0
-109.204 104.204 0.0
-106.986 106.591 0.0
-105.09 108.732 0.0
-103.546 110.567 0.0
-102.442 112.047 0.0
-101.916 113.101 0.0
-101.739 113.629 0.0
-104.908 118.012 0.0
-106.963 117.637 0.0
-109.741 116.601 0.0
-113.336 114.934 0.0
-117.459 112.817 0.0
-121.632 110.531 0.0
-125.367 108.303 0.0
-128.331 106.211 0.0
-130.364 104.22 0.0
-131.421 102.275 0.0
-131.509 100.376 0.0
-130.656 98.6368 0.0
-128.925 97.3015 0.0
-126.447 96.7022 0.0
-123.451 97.1281 0.0
-120.25 98.6603 0.0
-117.155 101.097 0.0
-114.381 104.045 0.0
-112.008 107.093 0.0
-110.013 109.939 0.0
-108.339 112.415 0.0
-106.956 114.452 0.0
-105.887 116.038 0.0
-105.209 117.171 0.0
-105.01 117.833 0.0
-104.908 118.012 0.0
-108.529 121.866 0.0
-110.564 121.218 0.0
-113.059 120.015 0.0
-116.041 118.26 0.0
-119.285 116.01 0.0
-122.504 113.399 0.0
-125.418 110.618 0.0
-127.797 107.849 0.0
-129.479 105.21 0.0
-130.369 102.774 0.0
-130.416 100.622 0.0
-129.598 98.9199 0.0
-127.944 97.9476 0.0
-125.57 98.0376 0.0
-122.723 99.4104 0.0
-119.76 101.991 0.0
-117.024 105.378 0.0
-114.72 109.025 0.0
-112.877 112.471 0.0
-111.418 115.445 0.0
-110.252 117.847 0.0
-109.332 119.674 0.0
-108.678 120.961 0.0
-108.359 121.742 0.0
-108.45 122.033 0.0
-108.529 121.866 0.0
-112.252 125.267 0.0
-114.326 124.396 0.0
-116.747 123.013 0.0
-119.53 121.13 0.0
-122.452 118.779 0.0
-125.249 116.033 0.0
-127.691 113.01 0.0
-129.606 109.867 0.0
-130.882 106.773 0.0
-131.443 103.9 0.0
-131.232 101.442 0.0
-130.202 99.6668 0.0
-128.356 98.9309 0.0
-125.81 99.598 0.0
-122.864 101.823 0.0
-119.955 105.342 0.0
-117.468 109.52 0.0
-115.57 113.665 0.0
-114.208 117.312 0.0
-113.233 120.268 0.0
-112.517 122.519 0.0
-111.999 124.127 0.0
-111.698 125.16 0.0
-111.68 125.671 0.0
-112.012 125.689 0.0
-112.252 125.267 0.0
-115.96 128.273 0.0
-118.083 127.272 0.0
-120.478 125.764 0.0
-123.162 123.762 0.0
-125.922 121.294 0.0
-128.51 118.414 0.0
-130.707 115.215 0.0
-132.357 111.83 0.0
-133.359 108.43 0.0
-133.647 105.225 0.0
-133.162 102.483 0.0
-131.844 100.565 0.0
-129.677 99.9317 0.0
-126.794 101.026 0.0
-123.58 103.968 0.0
-120.596 108.29 0.0
-118.279 113.096 0.0
-116.731 117.572 0.0
-115.796 121.296 0.0
-115.249 124.179 0.0
-114.928 126.294 0.0
-114.765 127.745 0.0
-114.776 128.62 0.0
-115.027 128.974 0.0
-115.575 128.837 0.0
-115.96 128.273 0.0
-119.6 130.908 0.0
-121.783 129.872 0.0
-124.177 128.316 0.0
-126.801 126.247 0.0
-129.453 123.683 0.0
-131.894 120.674 0.0
-133.918 117.302 0.0
-135.376 113.699 0.0
-136.175 110.038 0.0
-136.252 106.545 0.0
-135.543 103.519 0.0
-133.971 101.38 0.0
-131.484 100.693 0.0
-128.214 102.024 0.0
-124.642 105.521 0.0
-121.492 110.516 0.0
-119.276 115.834 0.0
-118.023 120.55 0.0
-117.462 124.311 0.0
-117.296 127.139 0.0
-117.334 129.179 0.0
-117.499 130.564 0.0
-117.805 131.386 0.0
-118.312 131.692 0.0
-119.071 131.509 0.0
-119.6 130.908 0.0
-123.136 133.153 0.0
-125.391 132.169 0.0
-127.804 130.642 0.0
-130.397 128.57 0.0
-132.972 125.962 0.0
-135.297 122.852 0.0
-137.172 119.323 0.0
-138.457 115.507 0.0
-139.071 111.59 0.0
-138.965 107.808 0.0
-138.08 104.469 0.0
-136.32 102.012 0.0
-133.582 101.079 0.0
-129.945 102.403 0.0
-125.958 106.252 0.0
-122.543 111.814 0.0
-120.338 117.598 0.0
-119.312 122.542 0.0
-119.073 126.361 0.0
-119.251 129.185 0.0
-119.626 131.222 0.0
-120.11 132.625 0.0
-120.711 133.483 0.0
-121.477 133.835 0.0
-122.453 133.698 0.0
-123.136 133.153 0.0
-126.522 134.928 0.0
-128.859 134.074 0.0
-131.307 132.652 0.0
-133.89 130.647 0.0
-136.412 128.055 0.0
-138.645 124.899 0.0
-140.388 121.248 0.0
-141.51 117.238 0.0
-141.945 113.071 0.0
-141.667 108.995 0.0
-140.644 105.31 0.0
-138.776 102.44 0.0
-135.9 101.052 0.0
-131.98 102.058 0.0
-127.544 105.995 0.0
-123.73 112.032 0.0
-121.401 118.313 0.0
-120.509 123.543 0.0
-120.535 127.48 0.0
-121.024 130.36 0.0
-121.719 132.454 0.0
-122.521 133.937 0.0
-123.423 134.896 0.0
-124.462 135.363 0.0
-125.67 135.343 0.0
-126.522 134.928 0.0
-129.689 136.112 0.0
-132.118 135.451 0.0
-134.611 134.198 0.0
-137.196 132.327 0.0
-139.683 129.82 0.0
-141.84 126.683 0.0
-143.469 122.968 0.0
-144.44 118.808 0.0
-144.702 114.415 0.0
-144.262 110.052 0.0
-143.128 106.013 0.0
-141.227 102.67 0.0
-138.356 100.651 0.0
-134.317 100.991 0.0
-129.464 104.645 0.0
-125.096 111.033 0.0
-122.45 117.907 0.0
-121.561 123.553 0.0
-121.78 127.696 0.0
-122.541 130.69 0.0
-123.54 132.882 0.0
-124.654 134.48 0.0
-125.864 135.577 0.0
-127.191 136.197 0.0