# vtk DataFile Version 2.0
Particulate Flow Equations Solution
ASCII
DATASET STRUCTURED_GRID
DIMENSIONS 26 26 1
POINTS 676 double
-10 -10 0
-9.23077 -10 0
-8.46154 -10 0
-7.69231 -10 0
-6.92308 -10 0
-6.15385 -10 0
-5.38462 -10 0
-4.61538 -10 0
-3.84615 -10 0
-3.07692 -10 0
-2.30769 -10 0
-1.53846 -10 0
-0.769231 -10 0
5.55112e-016 -10 0
0.769231 -10 0
1.53846 -10 0
2.30769 -10 0
3.07692 -10 0
3.84615 -10 0
4.61538 -10 0
5.38462 -10 0
6.15385 -10 0
6.92308 -10 0
7.69231 -10 0
8.46154 -10 0
10 -10 0
-10 -9.23077 0
-9.23077 -9.23077 0
-8.46154 -9.23077 0
-7.69231 -9.23077 0
-6.92308 -9.23077 0
-6.15385 -9.23077 0
-5.38462 -9.23077 0
-4.61538 -9.23077 0
-3.84615 -9.23077 0
-3.07692 -9.23077 0
-2.30769 -9.23077 0
-1.53846 -9.23077 0
-0.769231 -9.23077 0
5.55112e-016 -9.23077 0
0.769231 -9.23077 0
1.53846 -9.23077 0
2.30769 -9.23077 0
3.07692 -9.23077 0
3.84615 -9.23077 0
4.61538 -9.23077 0
5.38462 -9.23077 0
6.15385 -9.23077 0
6.92308 -9.23077 0
7.69231 -9.23077 0
8.46154 -9.23077 0
10 -9.23077 0
-10 -8.46154 0
-9.23077 -8.46154 0
-8.46154 -8.46154 0
-7.69231 -8.46154 0
-6.92308 -8.46154 0
-6.15385 -8.46154 0
-5.38462 -8.46154 0
-4.61538 -8.46154 0
-3.84615 -8.46154 0
-3.07692 -8.46154 0
-2.30769 -8.46154 0
-1.53846 -8.46154 0
-0.769231 -8.46154 0
5.55112e-016 -8.46154 0
0.769231 -8.46154 0
1.53846 -8.46154 0
2.30769 -8.46154 0
3.07692 -8.46154 0
3.84615 -8.46154 0
4.61538 -8.46154 0
5.38462 -8.46154 0
6.15385 -8.46154 0
6.92308 -8.46154 0
7.69231 -8.46154 0
8.46154 -8.46154 0
10 -8.46154 0
-10 -7.69231 0
-9.23077 -7.69231 0
-8.46154 -7.69231 0
-7.69231 -7.69231 0
-6.92308 -7.69231 0
-6.15385 -7.69231 0
-5.38462 -7.69231 0
-4.61538 -7.69231 0
-3.84615 -7.69231 0
-3.07692 -7.69231 0
-2.30769 -7.69231 0
-1.53846 -7.69231 0
-0.769231 -7.69231 0
5.55112e-016 -7.69231 0
0.769231 -7.69231 0
1.53846 -7.69231 0
2.30769 -7.69231 0
3.07692 -7.69231 0
3.84615 -7.69231 0
4.61538 -7.69231 0
5.38462 -7.69231 0
6.15385 -7.69231 0
6.92308 -7.69231 0
7.69231 -7.69231 0
8.46154 -7.69231 0
10 -7.69231 0
-10 -6.92308 0
-9.23077 -6.92308 0
-8.46154 -6.92308 0
-7.69231 -6.92308 0
-6.92308 -6.92308 0
-6.15385 -6.92308 0
-5.38462 -6.92308 0
-4.61538 -6.92308 0
-3.84615 -6.92308 0
-3.07692 -6.92308 0
-2.30769 -6.92308 0
-1.53846 -6.92308 0
-0.769231 -6.92308 0
5.55112e-016 -6.92308 0
0.769231 -6.92308 0
1.53846 -6.92308 0
2.30769 -6.92308 0
3.07692 -6.92308 0
3.84615 -6.92308 0
4.61538 -6.92308 0
5.38462 -6.92308 0
6.15385 -6.92308 0
6.92308 -6.92308 0
7.69231 -6.92308 0
8.46154 -6.92308 0
10 -6.92308 0
-10 -6.15385 0
-9.23077 -6.15385 0
-8.46154 -6.15385 0
-7.69231 -6.15385 0
-6.92308 -6.15385 0
-6.15385 -6.15385 0
-5.38462 -6.15385 0
-4.61538 -6.15385 0
-3.84615 -6.15385 0
-3.07692 -6.15385 0
-2.30769 -6.15385 0
-1.53846 -6.15385 0
-0.769231 -6.15385 0
5.55112e-016 -6.15385 0
0.769231 -6.15385 0
1.53846 -6.15385 0
2.30769 -6.15385 0
3.07692 -6.15385 0
3.84615 -6.15385 0
4.61538 -6.15385 0
5.38462 -6.15385 0
6.15385 -6.15385 0
6.92308 -6.15385 0
7.69231 -6.15385 0
8.46154 -6.15385 0
10 -6.15385 0
-10 -5.38462 0
-9.23077 -5.38462 0
-8.46154 -5.38462 0
-7.69231 -5.38462 0
-6.92308 -5.38462 0
-6.15385 -5.38462 0
-5.38462 -5.38462 0
-4.61538 -5.38462 0
-3.84615 -5.38462 0
-3.07692 -5.38462 0
-2.30769 -5.38462 0
-1.53846 -5.38462 0
-0.769231 -5.38462 0
5.55112e-016 -5.38462 0
0.769231 -5.38462 0
1.53846 -5.38462 0
2.30769 -5.38462 0
3.07692 -5.38462 0
3.84615 -5.38462 0
4.61538 -5.38462 0
5.38462 -5.38462 0
6.15385 -5.38462 0
6.92308 -5.38462 0
7.69231 -5.38462 0
8.46154 -5.38462 0
10 -5.38462 0
-10 -4.61538 0
-9.23077 -4.61538 0
-8.46154 -4.61538 0
-7.69231 -4.61538 0
-6.92308 -4.61538 0
-6.15385 -4.61538 0
-5.38462 -4.61538 0
-4.61538 -4.61538 0
-3.84615 -4.61538 0
-3.07692 -4.61538 0
-2.30769 -4.61538 0
-1.53846 -4.61538 0
-0.769231 -4.61538 0
5.55112e-016 -4.61538 0
0.769231 -4.61538 0
1.53846 -4.61538 0
2.30769 -4.61538 0
3.07692 -4.61538 0
3.84615 -4.61538 0
4.61538 -4.61538 0
5.38462 -4.61538 0
6.15385 -4.61538 0
6.92308 -4.61538 0
7.69231 -4.61538 0
8.46154 -4.61538 0
10 -4.61538 0
-10 -3.84615 0
-9.23077 -3.84615 0
-8.46154 -3.84615 0
-7.69231 -3.84615 0
-6.92308 -3.84615 0
-6.15385 -3.84615 0
-5.38462 -3.84615 0
-4.61538 -3.84615 0
-3.84615 -3.84615 0
-3.07692 -3.84615 0
-2.30769 -3.84615 0
-1.53846 -3.84615 0
-0.769231 -3.84615 0
5.55112e-016 -3.84615 0
0.769231 -3.84615 0
1.53846 -3.84615 0
2.30769 -3.84615 0
3.07692 -3.84615 0
3.84615 -3.84615 0
4.61538 -3.84615 0
5.38462 -3.84615 0
6.15385 -3.84615 0
6.92308 -3.84615 0
7.69231 -3.84615 0
8.46154 -3.84615 0
10 -3.84615 0
-10 -3.07692 0
-9.23077 -3.07692 0
-8.46154 -3.07692 0
-7.69231 -3.07692 0
-6.92308 -3.07692 0
-6.15385 -3.07692 0
-5.38462 -3.07692 0
-4.61538 -3.07692 0
-3.84615 -3.07692 0
-3.07692 -3.07692 0
-2.30769 -3.07692 0
-1.53846 -3.07692 0
-0.769231 -3.07692 0
5.55112e-016 -3.07692 0
0.769231 -3.07692 0
1.53846 -3.07692 0
2.30769 -3.07692 0
3.07692 -3.07692 0
3.84615 -3.07692 0
4.61538 -3.07692 0
5.38462 -3.07692 0
6.15385 -3.07692 0
6.92308 -3.07692 0
7.69231 -3.07692 0
8.46154 -3.07692 0
10 -3.07692 0
-10 -2.30769 0
-9.23077 -2.30769 0
-8.46154 -2.30769 0
-7.69231 -2.30769 0
-6.92308 -2.30769 0
-6.15385 -2.30769 0
-5.38462 -2.30769 0
-4.61538 -2.30769 0
-3.84615 -2.30769 0
-3.07692 -2.30769 0
-2.30769 -2.30769 0
-1.53846 -2.30769 0
-0.769231 -2.30769 0
5.55112e-016 -2.30769 0
0.769231 -2.30769 0
1.53846 -2.30769 0
2.30769 -2.30769 0
3.07692 -2.30769 0
3.84615 -2.30769 0
4.61538 -2.30769 0
5.38462 -2.30769 0
6.15385 -2.30769 0
6.92308 -2.30769 0
7.69231 -2.30769 0
8.46154 -2.30769 0
10 -2.30769 0
-10 -1.53846 0
-9.23077 -1.53846 0
-8.46154 -1.53846 0
-7.69231 -1.53846 0
-6.92308 -1.53846 0
-6.15385 -1.53846 0
-5.38462 -1.53846 0
-4.61538 -1.53846 0
-3.84615 -1.53846 0
-3.07692 -1.53846 0
-2.30769 -1.53846 0
-1.53846 -1.53846 0
-0.769231 -1.53846 0
5.55112e-016 -1.53846 0
0.769231 -1.53846 0
1.53846 -1.53846 0
2.30769 -1.53846 0
3.07692 -1.53846 0
3.84615 -1.53846 0
4.61538 -1.53846 0
5.38462 -1.53846 0
6.15385 -1.53846 0
6.92308 -1.53846 0
7.69231 -1.53846 0
8.46154 -1.53846 0
10 -1.53846 0
-10 -0.769231 0
-9.23077 -0.769231 0
-8.46154 -0.769231 0
-7.69231 -0.769231 0
-6.92308 -0.769231 0
-6.15385 -0.769231 0
-5.38462 -0.769231 0
-4.61538 -0.769231 0
-3.84615 -0.769231 0
-3.07692 -0.769231 0
-2.30769 -0.769231 0
-1.53846 -0.769231 0
-0.769231 -0.769231 0
5.55112e-016 -0.769231 0
0.769231 -0.769231 0
1.53846 -0.769231 0
2.30769 -0.769231 0
3.07692 -0.769231 0
3.84615 -0.769231 0
4.61538 -0.769231 0
5.38462 -0.769231 0
6.15385 -0.769231 0
6.92308 -0.769231 0
7.69231 -0.769231 0
8.46154 -0.769231 0
10 -0.769231 0
-10 5.55112e-016 0
-9.23077 5.55112e-016 0
-8.46154 5.55112e-016 0
-7.69231 5.55112e-016 0
-6.92308 5.55112e-016 0
-6.15385 5.55112e-016 0
-5.38462 5.55112e-016 0
-4.61538 5.55112e-016 0
-3.84615 5.55112e-016 0
-3.07692 5.55112e-016 0
-2.30769 5.55112e-016 0
-1.53846 5.55112e-016 0
-0.769231 5.55112e-016 0
5.55112e-016 5.55112e-016 0
0.769231 5.55112e-016 0
1.53846 5.55112e-016 0
2.30769 5.55112e-016 0
3.07692 5.55112e-016 0
3.84615 5.55112e-016 0
4.61538 5.55112e-016 0
5.38462 5.55112e-016 0
6.15385 5.55112e-016 0
6.92308 5.55112e-016 0
7.69231 5.55112e-016 0
8.46154 5.55112e-016 0
10 5.55112e-016 0
-10 0.769231 0
-9.23077 0.769231 0
-8.46154 0.769231 0
-7.69231 0.769231 0
-6.92308 0.769231 0
-6.15385 0.769231 0
-5.38462 0.769231 0
-4.61538 0.769231 0
-3.84615 0.769231 0
-3.07692 0.769231 0
-2.30769 0.769231 0
-1.53846 0.769231 0
-0.769231 0.769231 0
5.55112e-016 0.769231 0
0.769231 0.769231 0
1.53846 0.769231 0
2.30769 0.769231 0
3.07692 0.769231 0
3.84615 0.769231 0
4.61538 0.769231 0
5.38462 0.769231 0
6.15385 0.769231 0
6.92308 0.769231 0
7.69231 0.769231 0
8.46154 0.769231 0
10 0.769231 0
-10 1.53846 0
-9.23077 1.53846 0
-8.46154 1.53846 0
-7.69231 1.53846 0
-6.92308 1.53846 0
-6.15385 1.53846 0
-5.38462 1.53846 0
-4.61538 1.53846 0
-3.84615 1.53846 0
-3.07692 1.53846 0
-2.30769 1.53846 0
-1.53846 1.53846 0
-0.769231 1.53846 0
5.55112e-016 1.53846 0
0.769231 1.53846 0
1.53846 1.53846 0
2.30769 1.53846 0
3.07692 1.53846 0
3.84615 1.53846 0
4.61538 1.53846 0
5.38462 1.53846 0
6.15385 1.53846 0
6.92308 1.53846 0
7.69231 1.53846 0
8.46154 1.53846 0
10 1.53846 0
-10 2.30769 0
-9.23077 2.30769 0
-8.46154 2.30769 0
-7.69231 2.30769 0
-6.92308 2.30769 0
-6.15385 2.30769 0
-5.38462 2.30769 0
-4.61538 2.30769 0
-3.84615 2.30769 0
-3.07692 2.30769 0
-2.30769 2.30769 0
-1.53846 2.30769 0
-0.769231 2.30769 0
5.55112e-016 2.30769 0
0.769231 2.30769 0
1.53846 2.30769 0
2.30769 2.30769 0
3.07692 2.30769 0
3.84615 2.30769 0
4.61538 2.30769 0
5.38462 2.30769 0
6.15385 2.30769 0
6.92308 2.30769 0
7.69231 2.30769 0
8.46154 2.30769 0
10 2.30769 0
-10 3.07692 0
-9.23077 3.07692 0
-8.46154 3.07692 0
-7.69231 3.07692 0
-6.92308 3.07692 0
-6.15385 3.07692 0
-5.38462 3.07692 0
-4.61538 3.07692 0
-3.84615 3.07692 0
-3.07692 3.07692 0
-2.30769 3.07692 0
-1.53846 3.07692 0
-0.769231 3.07692 0
5.55112e-016 3.07692 0
0.769231 3.07692 0
1.53846 3.07692 0
2.30769 3.07692 0
3.07692 3.07692 0
3.84615 3.07692 0
4.61538 3.07692 0
5.38462 3.07692 0
6.15385 3.07692 0
6.92308 3.07692 0
7.69231 3.07692 0
8.46154 3.07692 0
10 3.07692 0
-10 3.84615 0
-9.23077 3.84615 0
-8.46154 3.84615 0
-7.69231 3.84615 0
-6.92308 3.84615 0
-6.15385 3.84615 0
-5.38462 3.84615 0
-4.61538 3.84615 0
-3.84615 3.84615 0
-3.07692 3.84615 0
-2.30769 3.84615 0
-1.53846 3.84615 0
-0.769231 3.84615 0
5.55112e-016 3.84615 0
0.769231 3.84615 0
1.53846 3.84615 0
2.30769 3.84615 0
3.07692 3.84615 0
3.84615 3.84615 0
4.61538 3.84615 0
5.38462 3.84615 0
6.15385 3.84615 0
6.92308 3.84615 0
7.69231 3.84615 0
8.46154 3.84615 0
10 3.84615 0
-10 4.61538 0
-9.23077 4.61538 0
-8.46154 4.61538 0
-7.69231 4.61538 0
-6.92308 4.61538 0
-6.15385 4.61538 0
-5.38462 4.61538 0
-4.61538 4.61538 0
-3.84615 4.61538 0
-3.07692 4.61538 0
-2.30769 4.61538 0
-1.53846 4.61538 0
-0.769231 4.61538 0
5.55112e-016 4.61538 0
0.769231 4.61538 0
1.53846 4.61538 0
2.30769 4.61538 0
3.07692 4.61538 0
3.84615 4.61538 0
4.61538 4.61538 0
5.38462 4.61538 0
6.15385 4.61538 0
6.92308 4.61538 0
7.69231 4.61538 0
8.46154 4.61538 0
10 4.61538 0
-10 5.38462 0
-9.23077 5.38462 0
-8.46154 5.38462 0
-7.69231 5.38462 0
-6.92308 5.38462 0
-6.15385 5.38462 0
-5.38462 5.38462 0
-4.61538 5.38462 0
-3.84615 5.38462 0
-3.07692 5.38462 0
-2.30769 5.38462 0
-1.53846 5.38462 0
-0.769231 5.38462 0
5.55112e-016 5.38462 0
0.769231 5.38462 0
1.53846 5.38462 0
2.30769 5.38462 0
3.07692 5.38462 0
3.84615 5.38462 0
4.61538 5.38462 0
5.38462 5.38462 0
6.15385 5.38462 0
6.92308 5.38462 0
7.69231 5.38462 0
8.46154 5.38462 0
10 5.38462 0
-10 6.15385 0
-9.23077 6.15385 0
-8.46154 6.15385 0
-7.69231 6.15385 0
-6.92308 6.15385 0
-6.15385 6.15385 0
-5.38462 6.15385 0
-4.61538 6.15385 0
-3.84615 6.15385 0
-3.07692 6.15385 0
-2.30769 6.15385 0
-1.53846 6.15385 0
-0.769231 6.15385 0
5.55112e-016 6.15385 0
0.769231 6.15385 0
1.53846 6.15385 0
2.30769 6.15385 0
3.07692 6.15385 0
3.84615 6.15385 0
4.61538 6.15385 0
5.38462 6.15385 0
6.15385 6.15385 0
6.92308 6.15385 0
7.69231 6.15385 0
8.46154 6.15385 0
10 6.15385 0
-10 6.92308 0
-9.23077 6.92308 0
-8.46154 6.92308 0
-7.69231 6.92308 0
-6.92308 6.92308 0
-6.15385 6.92308 0
-5.38462 6.92308 0
-4.61538 6.92308 0
-3.84615 6.92308 0
-3.07692 6.92308 0
-2.30769 6.92308 0
-1.53846 6.92308 0
-0.769231 6.92308 0
5.55112e-016 6.92308 0
0.769231 6.92308 0
1.53846 6.92308 0
2.30769 6.92308 0
3.07692 6.92308 0
3.84615 6.92308 0
4.61538 6.92308 0
5.38462 6.92308 0
6.15385 6.92308 0
6.92308 6.92308 0
7.69231 6.92308 0
8.46154 6.92308 0
10 6.92308 0
-10 7.69231 0
-9.23077 7.69231 0
-8.46154 7.69231 0
-7.69231 7.69231 0
-6.92308 7.69231 0
-6.15385 7.69231 0
-5.38462 7.69231 0
-4.61538 7.69231 0
-3.84615 7.69231 0
-3.07692 7.69231 0
-2.30769 7.69231 0
-1.53846 7.69231 0
-0.769231 7.69231 0
5.55112e-016 7.69231 0
0.769231 7.69231 0
1.53846 7.69231 0
2.30769 7.69231 0
3.07692 7.69231 0
3.84615 7.69231 0
4.61538 7.69231 0
5.38462 7.69231 0
6.15385 7.69231 0
6.92308 7.69231 0
7.69231 7.69231 0
8.46154 7.69231 0
10 7.69231 0
-10 8.46154 0
-9.23077 8.46154 0
-8.46154 8.46154 0
-7.69231 8.46154 0
-6.92308 8.46154 0
-6.15385 8.46154 0
-5.38462 8.46154 0
-4.61538 8.46154 0
-3.84615 8.46154 0
-3.07692 8.46154 0
-2.30769 8.46154 0
-1.53846 8.46154 0
-0.769231 8.46154 0
5.55112e-016 8.46154 0
0.769231 8.46154 0
1.53846 8.46154 0
2.30769 8.46154 0
3.07692 8.46154 0
3.84615 8.46154 0
4.61538 8.46154 0
5.38462 8.46154 0
6.15385 8.46154 0
6.92308 8.46154 0
7.69231 8.46154 0
8.46154 8.46154 0
10 8.46154 0
-10 10 0
-9.23077 10 0
-8.46154 10 0
-7.69231 10 0
-6.92308 10 0
-6.15385 10 0
-5.38462 10 0
-4.61538 10 0
-3.84615 10 0
-3.07692 10 0
-2.30769 10 0
-1.53846 10 0
-0.769231 10 0
5.55112e-016 10 0
0.769231 10 0
1.53846 10 0
2.30769 10 0
3.07692 10 0
3.84615 10 0
4.61538 10 0
5.38462 10 0
6.15385 10 0
6.92308 10 0
7.69231 10 0
8.46154 10 0
10 10 0

POINT_DATA 676
SCALARS h double 1
LOOkUP_TABLE default
0.0731488
0.0662337
0.0596227
0.0535066
0.0480327
0.0432792
0.0392769
0.0360402
0.0336003
0.0320398
0.0315274
0.0323417
0.0348587
0.0394657
0.0463731
0.055368
0.0656548
0.0759386
0.0847731
0.0909958
0.094017
0.0938605
0.0909913
0.086109
0.0799309
0.0731488
0.0766797
0.0710447
0.0651115
0.0592126
0.0536222
0.0485358
0.0440656
0.040266
0.0371662
0.0348027
0.0332524
0.0326612
0.0332582
0.0353376
0.0391825
0.0449203
0.0523519
0.0608525
0.0694443
0.0770394
0.0827275
0.0859844
0.0866837
0.0850813
0.0815542
0.0766797
0.0794346
0.0756645
0.0709276
0.0656335
0.0601712
0.054876
0.0499812
0.0456274
0.0418874
0.0388
0.0364032
0.0347656
0.0340101
0.0343221
0.0359304
0.0390447
0.0437512
0.0498959
0.057024
0.0644231
0.0712791
0.0768427
0.0805922
0.0822384
0.0817825
0.0794346
0.081161
0.0798543
0.0769097
0.0727143
0.0677317
0.0624277
0.0571851
0.0522748
0.0478615
0.0440313
0.0408279
0.0382872
0.0364683
0.0354732
0.0354525
0.0365885
0.0390487
0.0429136
0.0480975
0.0543041
0.0610309
0.0676536
0.073491
0.0779582
0.080575
0.081161
0.0816809
0.083289
0.0827637
0.0802884
0.0762821
0.0712926
0.0658569
0.0604152
0.0552761
0.0506244
0.0465542
0.0431093
0.0403213
0.038239
0.0369476
0.0365731
0.0372711
0.0391952
0.0424489
0.0470276
0.0527739
0.0593389
0.0661981
0.0726708
0.0780338
0.0816809
0.0807788
0.0855511
0.0880225
0.0879828
0.0856243
0.0814556
0.0761251
0.070261
0.064368
0.0587906
0.0537287
0.0492789
0.0454811
0.0423597
0.0399539
0.0383361
0.0376183
0.0379473
0.0394854
0.0423801
0.0467123
0.05244
0.0593149
0.0668475
0.0742865
0.0807788
0.0782788
0.0861331
0.092006
0.0951382
0.0952694
0.0926663
0.0879663
0.0819552
0.0753707
0.0687858
0.0625776
0.0569548
0.0520098
0.0477739
0.0442616
0.0415023
0.0395591
0.0385388
0.0385937
0.0399129
0.0427014
0.0471291
0.0532495
0.0608828
0.0695094
0.0782788
0.0741129
0.0845486
0.0938823
0.10078
0.104331
0.104289
0.101053
0.0954462
0.0884249
0.0808503
0.0733636
0.0663676
0.0600706
0.0545532
0.0498316
0.0459066
0.0427961
0.0405566
0.0392966
0.0391857
0.0404543
0.0433792
0.0482246
0.055135
0.0639575
0.0741129
0.068455
0.0805262
0.0928603
0.103729
0.111507
0.115179
0.11458
0.110312
0.103435
0.0951076
0.0863203
0.0777757
0.0698901
0.0628589
0.0567404
0.0515282
0.047204
0.0437726
0.041286
0.0398608
0.0396948
0.0410754
0.0443659
0.0499387
0.0580154
0.068455
0.0617959
0.0742226
0.0885006
0.102895
0.115258
0.123692
0.127128
0.125561
0.119871
0.111406
0.101542
0.0913951
0.0817127
0.0729061
0.065142
0.0584442
0.0527755
0.0480945
0.0443921
0.0417187
0.040206
0.040092
0.0417362
0.0456078
0.0521919
0.0617959
0.0548905
0.0663196
0.0810166
0.0977169
0.114215
0.127926
0.136701
0.139495
0.13655
0.1291
0.118812
0.107281
0.0957267
0.084917
0.0752337
0.0667968
0.0595846
0.0535234
0.0485469
0.0446341
0.0418376
0.0403127
0.0403481
0.0423923
0.047033
0.0548905
0.0485661
0.0578966
0.0713717
0.0885459
0.107751
0.126265
0.141054
0.149776
0.151501
0.146818
0.137365
0.125141
0.111937
0.0990416
0.0872067
0.0767586
0.0677559
0.0601243
0.0537528
0.0485519
0.0444921
0.0416344
0.0401644
0.0404338
0.0429904
0.0485661
0.0434871
0.0501076
0.0610477
0.0767197
0.0964398
0.118084
0.138372
0.153848
0.162066
0.162326
0.155642
0.144084
0.129963
0.11522
0.10116
0.0884799
0.0774298
0.067998
0.0600583
0.0534659
0.0481138
0.0439694
0.0411074
0.0397512
0.0403219
0.0434871
0.0400075
0.0438319
0.0515621
0.0641924
0.0820814
0.104264
0.128101
0.149756
0.165425
0.17268
0.171163
0.162365
0.14878
0.13297
0.116953
0.101995
0.0887046
0.077244
0.0675331
0.0594013
0.0526788
0.0472482
0.0430799
0.0402675
0.0390754
0.0400075
0.0381693
0.0394881
0.043997
0.0528658
0.0671561
0.0871443
0.11152
0.137107
0.159565
0.174871
0.180754
0.177292
0.166466
0.151125
0.133989
0.117068
0.101537
0.0878992
0.0762291
0.0663909
0.0581831
0.0514216
0.0459865
0.0418564
0.0391459
0.0381693
0.0378074
0.0370699
0.0387922
0.0439958
0.0539477
0.0697599
0.0915619
0.117656
0.144357
0.166938
0.181324
0.185548
0.180172
0.167613
0.150963
0.132981
0.115589
0.0998365
0.0861174
0.0744367
0.0646211
0.0564536
0.0497467
0.044385
0.0403576
0.0378074
0.0386764
0.0363193
0.0358471
0.0379903
0.0438387
0.0547477
0.0718159
0.0949675
0.12211
0.149136
0.171111
0.184102
0.18656
0.179516
0.165707
0.14832
0.130034
0.11262
0.0969904
0.0834472
0.0719478
0.0623024
0.0542929
0.0477377
0.0425297
0.0386764
0.0405406
0.0369042
0.0347796
0.0346074
0.0371444
0.0435491
0.0552074
0.0731364
0.0970107
0.124382
0.150873
0.171561
0.182836
0.183624
0.175345
0.160893
0.143391
0.125341
0.108333
0.0931481
0.0800202
0.0688847
0.0595531
0.0518182
0.0455105
0.0405406
0.043213
0.0385295
0.0351588
0.0333165
0.0334398
0.0363245
0.0431517
0.0552735
0.0735593
0.0974188
0.124139
0.149271
0.168128
0.177564
0.176964
0.167998
0.153542
0.136523
0.119202
0.102977
0.0885199
0.0760223
0.0654174
0.0565326
0.0491799
0.043213
0.0465566
0.0409773
0.0366309
0.0335825
0.0320303
0.0324334
0.0355942
0.0426684
0.0549089
0.0729863
0.0960668
0.121307
0.144399
0.161083
0.168747
0.167159
0.158079
0.144211
0.12819
0.112006
0.0968744
0.0833794
0.0716917
0.0617582
0.0534319
0.0465566
0.0504641
0.0441019
0.0389537
0.0349981
0.0322796
0.0310146
0.0316628
0.0350043
0.0421209
0.0541104
0.0714189
0.0930264
0.116112
0.136702
0.151092
0.157199
0.155063
0.146386
0.133589
0.118963
0.104219
0.0904099
0.07805
0.0673048
0.0581454
0.0504641
0.0548294
0.0478048
0.0419812
0.0373052
0.0337369
0.0313426
0.0303425
0.0311822
0.0345908
0.0415354
0.0529208
0.0689735
0.0885692
0.109055
0.126929
0.139096
0.143947
0.141676
0.133814
0.122432
0.109463
0.0963527
0.0840038
0.0728802
0.0631523
0.0548294
0.0595223
0.0520079
0.0456344
0.0403672
0.0361382
0.0329365
0.030839
0.0300619
0.0310224
0.0343758
0.0409456
0.0514304
0.0658693
0.0831217
0.100816
0.115994
0.126157
0.130086
0.128024
0.121262
0.1115
0.100319
0.08892
0.0780767
0.0682137
0.0595223
0.0643796
0.0566394
0.0498817
0.0441411
0.0393723
0.0355441
0.0326634
0.0308129
0.0301983
0.0311965
0.034373
0.0403964
0.0497698
0.0623936
0.077191
0.092139
0.104833
0.11331
0.116647
0.115059
0.109566
0.101501
0.0921213
0.0824072
0.0730247
0.0643796
0.068996
0.0614264
0.0545626
0.0485199
0.0433302
0.038994
0.0355057
0.0328864
0.0312209
0.0306984
0.0316482
0.0345397
0.0398916
0.0480405
0.058804
0.0712279
0.0836606
0.0942122
0.101368
0.104413
0.103484
0.0993192
0.0929138
0.0852259
0.0770692
0.068996
0.0731488
0.0662337
0.0596227
0.0535066
0.0480327
0.0432792
0.0392769
0.0360402
0.0336003
0.0320398
0.0315274
0.0323417
0.0348587
0.0394657
0.0463731
0.055368
0.0656548
0.0759386
0.0847731
0.0909958
0.094017
0.0938605
0.0909913
0.086109
0.0799309
0.0731488

VECTORS u double
-193.559 176.974 0.0
-193.066 176.956 0.0
-192.415 176.914 0.0
-191.69 176.846 0.0
-190.927 176.739 0.0
-190.154 176.585 0.0
-189.398 176.377 0.0
-188.687 176.11 0.0
-188.054 175.78 0.0
-187.536 175.396 0.0
-187.192 174.984 0.0
-187.098 174.603 0.0
-187.335 174.343 0.0
-187.942 174.292 0.0
-188.872 174.476 0.0
-190 174.846 0.0
-191.175 175.302 0.0
-192.269 175.749 0.0
-193.198 176.126 0.0
-193.914 176.404 0.0
-194.4 176.585 0.0
-194.654 176.687 0.0
-194.691 176.746 0.0
-194.521 176.767 0.0
-194.168 176.869 0.0
-193.559 176.974 0.0
-193.201 177.861 0.0
-192.798 178.072 0.0
-192.273 178.093 0.0
-191.683 178.102 0.0
-191.05 178.066 0.0
-190.398 177.971 0.0
-189.751 177.808 0.0
-189.133 177.57 0.0
-188.567 177.254 0.0
-188.077 176.858 0.0
-187.692 176.391 0.0
-187.454 175.878 0.0
-187.416 175.374 0.0
-187.639 174.963 0.0
-188.153 174.727 0.0
-188.928 174.71 0.0
-189.868 174.886 0.0
-190.853 175.185 0.0
-191.774 175.531 0.0
-192.556 175.87 0.0
-193.155 176.18 0.0
-193.569 176.467 0.0
-193.783 176.739 0.0
-193.895 177.039 0.0
-193.747 177.366 0.0
-193.201 177.861 0.0
-193.065 178.476 0.0
-192.673 178.987 0.0
-192.217 179.159 0.0
-191.737 179.281 0.0
-191.225 179.334 0.0
-190.692 179.309 0.0
-190.155 179.196 0.0
-189.634 178.991 0.0
-189.149 178.694 0.0
-188.715 178.303 0.0
-188.35 177.822 0.0
-188.071 177.261 0.0
-187.905 176.648 0.0
-187.889 176.033 0.0
-188.067 175.494 0.0
-188.465 175.112 0.0
-189.068 174.937 0.0
-189.81 174.97 0.0
-190.602 175.165 0.0
-191.355 175.469 0.0
-192.014 175.844 0.0
-192.541 176.265 0.0
-192.957 176.742 0.0
-193.241 177.249 0.0
-193.449 177.832 0.0
-193.065 178.476 0.0
-192.847 178.932 0.0
-192.574 179.612 0.0
-192.22 180.014 0.0
-191.852 180.297 0.0
-191.46 180.472 0.0
-191.045 180.537 0.0
-190.62 180.489 0.0
-190.198 180.329 0.0
-189.797 180.058 0.0
-189.43 179.68 0.0
-189.109 179.2 0.0
-188.841 178.625 0.0
-188.636 177.97 0.0
-188.509 177.263 0.0
-188.484 176.555 0.0
-188.596 175.919 0.0
-188.868 175.432 0.0
-189.302 175.156 0.0
-189.857 175.109 0.0
-190.478 175.275 0.0
-191.099 175.617 0.0
-191.687 176.105 0.0
-192.2 176.704 0.0
-192.672 177.39 0.0
-192.98 178.123 0.0
-192.847 178.932 0.0
-192.513 179.18 0.0
-192.421 180.032 0.0
-192.225 180.655 0.0
-191.994 181.123 0.0
-191.732 181.446 0.0
-191.441 181.624 0.0
-191.129 181.66 0.0
-190.809 181.558 0.0
-190.496 181.325 0.0
-190.201 180.968 0.0
-189.934 180.497 0.0
-189.7 179.92 0.0
-189.5 179.251 0.0
-189.337 178.508 0.0
-189.218 177.723 0.0
-189.16 176.945 0.0
-189.193 176.244 0.0
-189.343 175.701 0.0
-189.624 175.384 0.0
-190.023 175.329 0.0
-190.511 175.539 0.0
-191.042 175.985 0.0
-191.589 176.629 0.0
-192.104 177.399 0.0
-192.526 178.255 0.0
-192.513 179.18 0.0
-192.17 179.223 0.0
-192.246 180.23 0.0
-192.215 181.06 0.0
-192.136 181.722 0.0
-192.016 182.212 0.0
-191.857 182.526 0.0
-191.665 182.668 0.0
-191.453 182.645 0.0
-191.231 182.466 0.0
-191.012 182.144 0.0
-190.805 181.692 0.0
-190.615 181.123 0.0
-190.441 180.453 0.0
-190.28 179.697 0.0
-190.129 178.879 0.0
-189.994 178.032 0.0
-189.887 177.208 0.0
-189.835 176.476 0.0
-189.871 175.919 0.0
-190.02 175.614 0.0
-190.29 175.608 0.0
-190.672 175.911 0.0
-191.125 176.489 0.0
-191.624 177.272 0.0
-192.064 178.189 0.0
-192.17 179.223 0.0
-191.827 179.032 0.0
-192.045 180.18 0.0
-192.173 181.199 0.0
-192.251 182.057 0.0
-192.281 182.729 0.0
-192.263 183.202 0.0
-192.201 183.475 0.0
-192.103 183.555 0.0
-191.98 183.454 0.0
-191.843 183.185 0.0
-191.703 182.767 0.0
-191.564 182.219 0.0
-191.427 181.557 0.0
-191.287 180.801 0.0
-191.138 179.97 0.0
-190.976 179.092 0.0
-190.803 178.201 0.0
-190.632 177.35 0.0
-190.49 176.61 0.0
-190.411 176.068 0.0
-190.436 175.806 0.0
-190.586 175.879 0.0
-190.864 176.296 0.0
-191.244 177.001 0.0
-191.654 177.925 0.0
-191.827 179.032 0.0
-191.496 178.602 0.0
-191.813 179.857 0.0
-192.077 181.045 0.0
-192.308 182.095 0.0
-192.493 182.96 0.0
-192.624 183.613 0.0
-192.701 184.044 0.0
-192.729 184.255 0.0
-192.715 184.258 0.0
-192.672 184.068 0.0
-192.608 183.706 0.0
-192.529 183.194 0.0
-192.437 182.553 0.0
-192.328 181.806 0.0
-192.197 180.974 0.0
-192.035 180.081 0.0
-191.838 179.153 0.0
-191.605 178.227 0.0
-191.349 177.358 0.0
-191.098 176.62 0.0
-190.894 176.104 0.0
-190.788 175.902 0.0
-190.82 176.073 0.0
-191.01 176.611 0.0
-191.313 177.468 0.0
-191.496 178.602 0.0
-191.187 177.942 0.0
-191.542 179.255 0.0
-191.907 180.582 0.0
-192.275 181.814 0.0
-192.614 182.878 0.0
-192.901 183.727 0.0
-193.129 184.34 0.0
-193.295 184.712 0.0
-193.406 184.85 0.0
-193.469 184.768 0.0
-193.494 184.488 0.0
-193.487 184.034 0.0
-193.45 183.431 0.0
-193.382 182.705 0.0
-193.277 181.88 0.0
-193.128 180.98 0.0
-192.925 180.028 0.0
-192.662 179.053 0.0
-192.34 178.094 0.0
-191.971 177.206 0.0
-191.588 176.471 0.0
-191.244 175.989 0.0
-191.009 175.864 0.0
-190.948 176.15 0.0
-191.07 176.852 0.0
-191.187 177.942 0.0
-190.923 177.096 0.0
-191.238 178.396 0.0
-191.65 179.814 0.0
-192.126 181.207 0.0
-192.609 182.466 0.0
-193.056 183.523 0.0
-193.444 184.34 0.0
-193.763 184.899 0.0
-194.014 185.203 0.0
-194.201 185.261 0.0
-194.331 185.092 0.0
-194.41 184.721 0.0
-194.441 184.177 0.0
-194.423 183.486 0.0
-194.353 182.678 0.0
-194.223 181.778 0.0
-194.024 180.81 0.0
-193.746 179.799 0.0
-193.385 178.775 0.0
-192.941 177.778 0.0
-192.434 176.871 0.0
-191.903 176.144 0.0
-191.422 175.715 0.0
-191.085 175.691 0.0
-190.958 176.144 0.0
-190.923 177.096 0.0
-190.745 176.142 0.0
-190.927 177.329 0.0
-191.311 178.769 0.0
-191.848 180.283 0.0
-192.453 181.724 0.0
-193.055 182.991 0.0
-193.61 184.025 0.0
-194.095 184.795 0.0
-194.502 185.292 0.0
-194.831 185.52 0.0
-195.085 185.494 0.0
-195.267 185.235 0.0
-195.38 184.773 0.0
-195.424 184.136 0.0
-195.396 183.358 0.0
-195.291 182.466 0.0
-195.1 181.488 0.0
-194.816 180.451 0.0
-194.431 179.379 0.0
-193.942 178.304 0.0
-193.356 177.273 0.0
-192.698 176.355 0.0
-192.024 175.656 0.0
-191.43 175.305 0.0
-191.018 175.434 0.0
-190.745 176.142 0.0
-190.709 175.188 0.0
-190.662 176.142 0.0
-190.92 177.503 0.0
-191.447 179.074 0.0
-192.131 180.664 0.0
-192.871 182.131 0.0
-193.592 183.388 0.0
-194.253 184.384 0.0
-194.831 185.098 0.0
-195.32 185.523 0.0
-195.716 185.669 0.0
-196.02 185.552 0.0
-196.232 185.198 0.0
-196.352 184.638 0.0
-196.377 183.906 0.0
-196.303 183.035 0.0
-196.126 182.057 0.0
-195.84 181.001 0.0
-195.44 179.895 0.0
-194.924 178.766 0.0
-194.292 177.649 0.0
-193.558 176.597 0.0
-192.756 175.69 0.0
-191.96 175.044 0.0
-191.274 174.819 0.0
-190.709 175.188 0.0
-190.859 174.354 0.0
-190.514 174.961 0.0
-190.537 176.111 0.0
-190.953 177.638 0.0
-191.649 179.317 0.0
-192.49 180.958 0.0
-193.365 182.431 0.0
-194.202 183.659 0.0
-194.963 184.604 0.0
-195.625 185.249 0.0
-196.181 185.592 0.0
-196.626 185.645 0.0
-196.955 185.428 0.0
-197.167 184.97 0.0
-197.258 184.307 0.0
-197.227 183.474 0.0
-197.072 182.509 0.0
-196.791 181.447 0.0
-196.385 180.319 0.0
-195.852 179.154 0.0
-195.195 177.984 0.0
-194.421 176.845 0.0
-193.548 175.795 0.0
-192.621 174.922 0.0
-191.718 174.372 0.0
-190.859 174.354 0.0
-191.203 173.738 0.0
-190.547 173.928 0.0
-190.247 174.729 0.0
-190.431 176.071 0.0
-191.038 177.742 0.0
-191.916 179.502 0.0
-192.912 181.167 0.0
-193.917 182.622 0.0
-194.861 183.804 0.0
-195.709 184.681 0.0
-196.439 185.242 0.0
-197.04 185.489 0.0
-197.504 185.436 0.0
-197.826 185.109 0.0
-198.002 184.54 0.0
-198.029 183.769 0.0
-197.908 182.837 0.0
-197.644 181.785 0.0
-197.24 180.651 0.0
-196.701 179.469 0.0
-196.033 178.267 0.0
-195.241 177.078 0.0
-194.336 175.943 0.0
-193.341 174.919 0.0
-192.299 174.119 0.0
-191.203 173.738 0.0
-191.694 173.38 0.0
-190.784 173.169 0.0
-190.134 173.526 0.0
-189.978 174.522 0.0
-190.364 176.037 0.0
-191.177 177.82 0.0
-192.235 179.627 0.0
-193.378 181.285 0.0
-194.499 182.698 0.0
-195.534 183.812 0.0
-196.448 184.603 0.0
-197.22 185.063 0.0
-197.836 185.199 0.0
-198.287 185.03 0.0
-198.565 184.585 0.0
-198.67 183.903 0.0
-198.602 183.03 0.0
-198.37 182.011 0.0
-197.982 180.891 0.0
-197.449 179.709 0.0
-196.78 178.498 0.0
-195.985 177.288 0.0
-195.071 176.11 0.0
-194.051 175.002 0.0
-192.941 174.04 0.0
-191.694 173.38 0.0
-192.252 173.258 0.0
-191.184 172.738 0.0
-190.24 172.656 0.0
-189.698 173.186 0.0
-189.733 174.362 0.0
-190.342 176.014 0.0
-191.361 177.867 0.0
-192.587 179.681 0.0
-193.859 181.302 0.0
-195.074 182.646 0.0
-196.175 183.67 0.0
-197.127 184.355 0.0
-197.909 184.698 0.0
-198.506 184.712 0.0
-198.909 184.42 0.0
-199.113 183.859 0.0
-199.12 183.075 0.0
-198.941 182.117 0.0
-198.587 181.037 0.0
-198.075 179.877 0.0
-197.418 178.678 0.0
-196.63 177.47 0.0
-195.721 176.281 0.0
-194.7 175.138 0.0
-193.571 174.093 0.0
-192.252 173.258 0.0
-192.8 173.321 0.0
-191.664 172.613 0.0
-190.532 172.192 0.0
-189.654 172.245 0.0
-189.269 172.935 0.0
-189.524 174.256 0.0
-190.36 175.997 0.0