# vtk DataFile Version 2.0
Particulate Flow Equations Solution
ASCII
DATASET STRUCTURED_GRID
DIMENSIONS 26 26 1
POINTS 676 double
-10 -10 0
-9.23077 -10 0
-8.46154 -10 0
-7.69231 -10 0
-6.92308 -10 0
-6.15385 -10 0
-5.38462 -10 0
-4.61538 -10 0
-3.84615 -10 0
-3.07692 -10 0
-2.30769 -10 0
-1.53846 -10 0
-0.769231 -10 0
5.55112e-016 -10 0
0.769231 -10 0
1.53846 -10 0
2.30769 -10 0
3.07692 -10 0
3.84615 -10 0
4.61538 -10 0
5.38462 -10 0
6.15385 -10 0
6.92308 -10 0
7.69231 -10 0
8.46154 -10 0
10 -10 0
-10 -9.23077 0
-9.23077 -9.23077 0
-8.46154 -9.23077 0
-7.69231 -9.23077 0
-6.92308 -9.23077 0
-6.15385 -9.23077 0
-5.38462 -9.23077 0
-4.61538 -9.23077 0
-3.84615 -9.23077 0
-3.07692 -9.23077 0
-2.30769 -9.23077 0
-1.53846 -9.23077 0
-0.769231 -9.23077 0
5.55112e-016 -9.23077 0
0.769231 -9.23077 0
1.53846 -9.23077 0
2.30769 -9.23077 0
3.07692 -9.23077 0
3.84615 -9.23077 0
4.61538 -9.23077 0
5.38462 -9.23077 0
6.15385 -9.23077 0
6.92308 -9.23077 0
7.69231 -9.23077 0
8.46154 -9.23077 0
10 -9.23077 0
-10 -8.46154 0
-9.23077 -8.46154 0
-8.46154 -8.46154 0
-7.69231 -8.46154 0
-6.92308 -8.46154 0
-6.15385 -8.46154 0
-5.38462 -8.46154 0
-4.61538 -8.46154 0
-3.84615 -8.46154 0
-3.07692 -8.46154 0
-2.30769 -8.46154 0
-1.53846 -8.46154 0
-0.769231 -8.46154 0
5.55112e-016 -8.46154 0
0.769231 -8.46154 0
1.53846 -8.46154 0
2.30769 -8.46154 0
3.07692 -8.46154 0
3.84615 -8.46154 0
4.61538 -8.46154 0
5.38462 -8.46154 0
6.15385 -8.46154 0
6.92308 -8.46154 0
7.69231 -8.46154 0
8.46154 -8.46154 0
10 -8.46154 0
-10 -7.69231 0
-9.23077 -7.69231 0
-8.46154 -7.69231 0
-7.69231 -7.69231 0
-6.92308 -7.69231 0
-6.15385 -7.69231 0
-5.38462 -7.69231 0
-4.61538 -7.69231 0
-3.84615 -7.69231 0
-3.07692 -7.69231 0
-2.30769 -7.69231 0
-1.53846 -7.69231 0
-0.769231 -7.69231 0
5.55112e-016 -7.69231 0
0.769231 -7.69231 0
1.53846 -7.69231 0
2.30769 -7.69231 0
3.07692 -7.69231 0
3.84615 -7.69231 0
4.61538 -7.69231 0
5.38462 -7.69231 0
6.15385 -7.69231 0
6.92308 -7.69231 0
7.69231 -7.69231 0
8.46154 -7.69231 0
10 -7.69231 0
-10 -6.92308 0
-9.23077 -6.92308 0
-8.46154 -6.92308 0
-7.69231 -6.92308 0
-6.92308 -6.92308 0
-6.15385 -6.92308 0
-5.38462 -6.92308 0
-4.61538 -6.92308 0
-3.84615 -6.92308 0
-3.07692 -6.92308 0
-2.30769 -6.92308 0
-1.53846 -6.92308 0
-0.769231 -6.92308 0
5.55112e-016 -6.92308 0
0.769231 -6.92308 0
1.53846 -6.92308 0
2.30769 -6.92308 0
3.07692 -6.92308 0
3.84615 -6.92308 0
4.61538 -6.92308 0
5.38462 -6.92308 0
6.15385 -6.92308 0
6.92308 -6.92308 0
7.69231 -6.92308 0
8.46154 -6.92308 0
10 -6.92308 0
-10 -6.15385 0
-9.23077 -6.15385 0
-8.46154 -6.15385 0
-7.69231 -6.15385 0
-6.92308 -6.15385 0
-6.15385 -6.15385 0
-5.38462 -6.15385 0
-4.61538 -6.15385 0
-3.84615 -6.15385 0
-3.07692 -6.15385 0
-2.30769 -6.15385 0
-1.53846 -6.15385 0
-0.769231 -6.15385 0
5.55112e-016 -6.15385 0
0.769231 -6.15385 0
1.53846 -6.15385 0
2.30769 -6.15385 0
3.07692 -6.15385 0
3.84615 -6.15385 0
4.61538 -6.15385 0
5.38462 -6.15385 0
6.15385 -6.15385 0
6.92308 -6.15385 0
7.69231 -6.15385 0
8.46154 -6.15385 0
10 -6.15385 0
-10 -5.38462 0
-9.23077 -5.38462 0
-8.46154 -5.38462 0
-7.69231 -5.38462 0
-6.92308 -5.38462 0
-6.15385 -5.38462 0
-5.38462 -5.38462 0
-4.61538 -5.38462 0
-3.84615 -5.38462 0
-3.07692 -5.38462 0
-2.30769 -5.38462 0
-1.53846 -5.38462 0
-0.769231 -5.38462 0
5.55112e-016 -5.38462 0
0.769231 -5.38462 0
1.53846 -5.38462 0
2.30769 -5.38462 0
3.07692 -5.38462 0
3.84615 -5.38462 0
4.61538 -5.38462 0
5.38462 -5.38462 0
6.15385 -5.38462 0
6.92308 -5.38462 0
7.69231 -5.38462 0
8.46154 -5.38462 0
10 -5.38462 0
-10 -4.61538 0
-9.23077 -4.61538 0
-8.46154 -4.61538 0
-7.69231 -4.61538 0
-6.92308 -4.61538 0
-6.15385 -4.61538 0
-5.38462 -4.61538 0
-4.61538 -4.61538 0
-3.84615 -4.61538 0
-3.07692 -4.61538 0
-2.30769 -4.61538 0
-1.53846 -4.61538 0
-0.769231 -4.61538 0
5.55112e-016 -4.61538 0
0.769231 -4.61538 0
1.53846 -4.61538 0
2.30769 -4.61538 0
3.07692 -4.61538 0
3.84615 -4.61538 0
4.61538 -4.61538 0
5.38462 -4.61538 0
6.15385 -4.61538 0
6.92308 -4.61538 0
7.69231 -4.61538 0
8.46154 -4.61538 0
10 -4.61538 0
-10 -3.84615 0
-9.23077 -3.84615 0
-8.46154 -3.84615 0
-7.69231 -3.84615 0
-6.92308 -3.84615 0
-6.15385 -3.84615 0
-5.38462 -3.84615 0
-4.61538 -3.84615 0
-3.84615 -3.84615 0
-3.07692 -3.84615 0
-2.30769 -3.84615 0
-1.53846 -3.84615 0
-0.769231 -3.84615 0
5.55112e-016 -3.84615 0
0.769231 -3.84615 0
1.53846 -3.84615 0
2.30769 -3.84615 0
3.07692 -3.84615 0
3.84615 -3.84615 0
4.61538 -3.84615 0
5.38462 -3.84615 0
6.15385 -3.84615 0
6.92308 -3.84615 0
7.69231 -3.84615 0
8.46154 -3.84615 0
10 -3.84615 0
-10 -3.07692 0
-9.23077 -3.07692 0
-8.46154 -3.07692 0
-7.69231 -3.07692 0
-6.92308 -3.07692 0
-6.15385 -3.07692 0
-5.38462 -3.07692 0
-4.61538 -3.07692 0
-3.84615 -3.07692 0
-3.07692 -3.07692 0
-2.30769 -3.07692 0
-1.53846 -3.07692 0
-0.769231 -3.07692 0
5.55112e-016 -3.07692 0
0.769231 -3.07692 0
1.53846 -3.07692 0
2.30769 -3.07692 0
3.07692 -3.07692 0
3.84615 -3.07692 0
4.61538 -3.07692 0
5.38462 -3.07692 0
6.15385 -3.07692 0
6.92308 -3.07692 0
7.69231 -3.07692 0
8.46154 -3.07692 0
10 -3.07692 0
-10 -2.30769 0
-9.23077 -2.30769 0
-8.46154 -2.30769 0
-7.69231 -2.30769 0
-6.92308 -2.30769 0
-6.15385 -2.30769 0
-5.38462 -2.30769 0
-4.61538 -2.30769 0
-3.84615 -2.30769 0
-3.07692 -2.30769 0
-2.30769 -2.30769 0
-1.53846 -2.30769 0
-0.769231 -2.30769 0
5.55112e-016 -2.30769 0
0.769231 -2.30769 0
1.53846 -2.30769 0
2.30769 -2.30769 0
3.07692 -2.30769 0
3.84615 -2.30769 0
4.61538 -2.30769 0
5.38462 -2.30769 0
6.15385 -2.30769 0
6.92308 -2.30769 0
7.69231 -2.30769 0
8.46154 -2.30769 0
10 -2.30769 0
-10 -1.53846 0
-9.23077 -1.53846 0
-8.46154 -1.53846 0
-7.69231 -1.53846 0
-6.92308 -1.53846 0
-6.15385 -1.53846 0
-5.38462 -1.53846 0
-4.61538 -1.53846 0
-3.84615 -1.53846 0
-3.07692 -1.53846 0
-2.30769 -1.53846 0
-1.53846 -1.53846 0
-0.769231 -1.53846 0
5.55112e-016 -1.53846 0
0.769231 -1.53846 0
1.53846 -1.53846 0
2.30769 -1.53846 0
3.07692 -1.53846 0
3.84615 -1.53846 0
4.61538 -1.53846 0
5.38462 -1.53846 0
6.15385 -1.53846 0
6.92308 -1.53846 0
7.69231 -1.53846 0
8.46154 -1.53846 0
10 -1.53846 0
-10 -0.769231 0
-9.23077 -0.769231 0
-8.46154 -0.769231 0
-7.69231 -0.769231 0
-6.92308 -0.769231 0
-6.15385 -0.769231 0
-5.38462 -0.769231 0
-4.61538 -0.769231 0
-3.84615 -0.769231 0
-3.07692 -0.769231 0
-2.30769 -0.769231 0
-1.53846 -0.769231 0
-0.769231 -0.769231 0
5.55112e-016 -0.769231 0
0.769231 -0.769231 0
1.53846 -0.769231 0
2.30769 -0.769231 0
3.07692 -0.769231 0
3.84615 -0.769231 0
4.61538 -0.769231 0
5.38462 -0.769231 0
6.15385 -0.769231 0
6.92308 -0.769231 0
7.69231 -0.769231 0
8.46154 -0.769231 0
10 -0.769231 0
-10 5.55112e-016 0
-9.23077 5.55112e-016 0
-8.46154 5.55112e-016 0
-7.69231 5.55112e-016 0
-6.92308 5.55112e-016 0
-6.15385 5.55112e-016 0
-5.38462 5.55112e-016 0
-4.61538 5.55112e-016 0
-3.84615 5.55112e-016 0
-3.07692 5.55112e-016 0
-2.30769 5.55112e-016 0
-1.53846 5.55112e-016 0
-0.769231 5.55112e-016 0
5.55112e-016 5.55112e-016 0
0.769231 5.55112e-016 0
1.53846 5.55112e-016 0
2.30769 5.55112e-016 0
3.07692 5.55112e-016 0
3.84615 5.55112e-016 0
4.61538 5.55112e-016 0
5.38462 5.55112e-016 0
6.15385 5.55112e-016 0
6.92308 5.55112e-016 0
7.69231 5.55112e-016 0
8.46154 5.55112e-016 0
10 5.55112e-016 0
-10 0.769231 0
-9.23077 0.769231 0
-8.46154 0.769231 0
-7.69231 0.769231 0
-6.92308 0.769231 0
-6.15385 0.769231 0
-5.38462 0.769231 0
-4.61538 0.769231 0
-3.84615 0.769231 0
-3.07692 0.769231 0
-2.30769 0.769231 0
-1.53846 0.769231 0
-0.769231 0.769231 0
5.55112e-016 0.769231 0
0.769231 0.769231 0
1.53846 0.769231 0
2.30769 0.769231 0
3.07692 0.769231 0
3.84615 0.769231 0
4.61538 0.769231 0
5.38462 0.769231 0
6.15385 0.769231 0
6.92308 0.769231 0
7.69231 0.769231 0
8.46154 0.769231 0
10 0.769231 0
-10 1.53846 0
-9.23077 1.53846 0
-8.46154 1.53846 0
-7.69231 1.53846 0
-6.92308 1.53846 0
-6.15385 1.53846 0
-5.38462 1.53846 0
-4.61538 1.53846 0
-3.84615 1.53846 0
-3.07692 1.53846 0
-2.30769 1.53846 0
-1.53846 1.53846 0
-0.769231 1.53846 0
5.55112e-016 1.53846 0
0.769231 1.53846 0
1.53846 1.53846 0
2.30769 1.53846 0
3.07692 1.53846 0
3.84615 1.53846 0
4.61538 1.53846 0
5.38462 1.53846 0
6.15385 1.53846 0
6.92308 1.53846 0
7.69231 1.53846 0
8.46154 1.53846 0
10 1.53846 0
-10 2.30769 0
-9.23077 2.30769 0
-8.46154 2.30769 0
-7.69231 2.30769 0
-6.92308 2.30769 0
-6.15385 2.30769 0
-5.38462 2.30769 0
-4.61538 2.30769 0
-3.84615 2.30769 0
-3.07692 2.30769 0
-2.30769 2.30769 0
-1.53846 2.30769 0
-0.769231 2.30769 0
5.55112e-016 2.30769 0
0.769231 2.30769 0
1.53846 2.30769 0
2.30769 2.30769 0
3.07692 2.30769 0
3.84615 2.30769 0
4.61538 2.30769 0
5.38462 2.30769 0
6.15385 2.30769 0
6.92308 2.30769 0
7.69231 2.30769 0
8.46154 2.30769 0
10 2.30769 0
-10 3.07692 0
-9.23077 3.07692 0
-8.46154 3.07692 0
-7.69231 3.07692 0
-6.92308 3.07692 0
-6.15385 3.07692 0
-5.38462 3.07692 0
-4.61538 3.07692 0
-3.84615 3.07692 0
-3.07692 3.07692 0
-2.30769 3.07692 0
-1.53846 3.07692 0
-0.769231 3.07692 0
5.55112e-016 3.07692 0
0.769231 3.07692 0
1.53846 3.07692 0
2.30769 3.07692 0
3.07692 3.07692 0
3.84615 3.07692 0
4.61538 3.07692 0
5.38462 3.07692 0
6.15385 3.07692 0
6.92308 3.07692 0
7.69231 3.07692 0
8.46154 3.07692 0
10 3.07692 0
-10 3.84615 0
-9.23077 3.84615 0
-8.46154 3.84615 0
-7.69231 3.84615 0
-6.92308 3.84615 0
-6.15385 3.84615 0
-5.38462 3.84615 0
-4.61538 3.84615 0
-3.84615 3.84615 0
-3.07692 3.84615 0
-2.30769 3.84615 0
-1.53846 3.84615 0
-0.769231 3.84615 0
5.55112e-016 3.84615 0
0.769231 3.84615 0
1.53846 3.84615 0
2.30769 3.84615 0
3.07692 3.84615 0
3.84615 3.84615 0
4.61538 3.84615 0
5.38462 3.84615 0
6.15385 3.84615 0
6.92308 3.84615 0
7.69231 3.84615 0
8.46154 3.84615 0
10 3.84615 0
-10 4.61538 0
-9.23077 4.61538 0
-8.46154 4.61538 0
-7.69231 4.61538 0
-6.92308 4.61538 0
-6.15385 4.61538 0
-5.38462 4.61538 0
-4.61538 4.61538 0
-3.84615 4.61538 0
-3.07692 4.61538 0
-2.30769 4.61538 0
-1.53846 4.61538 0
-0.769231 4.61538 0
5.55112e-016 4.61538 0
0.769231 4.61538 0
1.53846 4.61538 0
2.30769 4.61538 0
3.07692 4.61538 0
3.84615 4.61538 0
4.61538 4.61538 0
5.38462 4.61538 0
6.15385 4.61538 0
6.92308 4.61538 0
7.69231 4.61538 0
8.46154 4.61538 0
10 4.61538 0
-10 5.38462 0
-9.23077 5.38462 0
-8.46154 5.38462 0
-7.69231 5.38462 0
-6.92308 5.38462 0
-6.15385 5.38462 0
-5.38462 5.38462 0
-4.61538 5.38462 0
-3.84615 5.38462 0
-3.07692 5.38462 0
-2.30769 5.38462 0
-1.53846 5.38462 0
-0.769231 5.38462 0
5.55112e-016 5.38462 0
0.769231 5.38462 0
1.53846 5.38462 0
2.30769 5.38462 0
3.07692 5.38462 0
3.84615 5.38462 0
4.61538 5.38462 0
5.38462 5.38462 0
6.15385 5.38462 0
6.92308 5.38462 0
7.69231 5.38462 0
8.46154 5.38462 0
10 5.38462 0
-10 6.15385 0
-9.23077 6.15385 0
-8.46154 6.15385 0
-7.69231 6.15385 0
-6.92308 6.15385 0
-6.15385 6.15385 0
-5.38462 6.15385 0
-4.61538 6.15385 0
-3.84615 6.15385 0
-3.07692 6.15385 0
-2.30769 6.15385 0
-1.53846 6.15385 0
-0.769231 6.15385 0
5.55112e-016 6.15385 0
0.769231 6.15385 0
1.53846 6.15385 0
2.30769 6.15385 0
3.07692 6.15385 0
3.84615 6.15385 0
4.61538 6.15385 0
5.38462 6.15385 0
6.15385 6.15385 0
6.92308 6.15385 0
7.69231 6.15385 0
8.46154 6.15385 0
10 6.15385 0
-10 6.92308 0
-9.23077 6.92308 0
-8.46154 6.92308 0
-7.69231 6.92308 0
-6.92308 6.92308 0
-6.15385 6.92308 0
-5.38462 6.92308 0
-4.61538 6.92308 0
-3.84615 6.92308 0
-3.07692 6.92308 0
-2.30769 6.92308 0
-1.53846 6.92308 0
-0.769231 6.92308 0
5.55112e-016 6.92308 0
0.769231 6.92308 0
1.53846 6.92308 0
2.30769 6.92308 0
3.07692 6.92308 0
3.84615 6.92308 0
4.61538 6.92308 0
5.38462 6.92308 0
6.15385 6.92308 0
6.92308 6.92308 0
7.69231 6.92308 0
8.46154 6.92308 0
10 6.92308 0
-10 7.69231 0
-9.23077 7.69231 0
-8.46154 7.69231 0
-7.69231 7.69231 0
-6.92308 7.69231 0
-6.15385 7.69231 0
-5.38462 7.69231 0
-4.61538 7.69231 0
-3.84615 7.69231 0
-3.07692 7.69231 0
-2.30769 7.69231 0
-1.53846 7.69231 0
-0.769231 7.69231 0
5.55112e-016 7.69231 0
0.769231 7.69231 0
1.53846 7.69231 0
2.30769 7.69231 0
3.07692 7.69231 0
3.84615 7.69231 0
4.61538 7.69231 0
5.38462 7.69231 0
6.15385 7.69231 0
6.92308 7.69231 0
7.69231 7.69231 0
8.46154 7.69231 0
10 7.69231 0
-10 8.46154 0
-9.23077 8.46154 0
-8.46154 8.46154 0
-7.69231 8.46154 0
-6.92308 8.46154 0
-6.15385 8.46154 0
-5.38462 8.46154 0
-4.61538 8.46154 0
-3.84615 8.46154 0
-3.07692 8.46154 0
-2.30769 8.46154 0
-1.53846 8.46154 0
-0.769231 8.46154 0
5.55112e-016 8.46154 0
0.769231 8.46154 0
1.53846 8.46154 0
2.30769 8.46154 0
3.07692 8.46154 0
3.84615 8.46154 0
4.61538 8.46154 0
5.38462 8.46154 0
6.15385 8.46154 0
6.92308 8.46154 0
7.69231 8.46154 0
8.46154 8.46154 0
10 8.46154 0
-10 10 0
-9.23077 10 0
-8.46154 10 0
-7.69231 10 0
-6.92308 10 0
-6.15385 10 0
-5.38462 10 0
-4.61538 10 0
-3.84615 10 0
-3.07692 10 0
-2.30769 10 0
-1.53846 10 0
-0.769231 10 0
5.55112e-016 10 0
0.769231 10 0
1.53846 10 0
2.30769 10 0
3.07692 10 0
3.84615 10 0
4.61538 10 0
5.38462 10 0
6.15385 10 0
6.92308 10 0
7.69231 10 0
8.46154 10 0
10 10 0

POINT_DATA 676
SCALARS h double 1
LOOkUP_TABLE default
0.0906263
0.0824504
0.0744173
0.0667566
0.0596621
0.0532669
0.0476672
0.0429488
0.0392085
0.0365757
0.035237
0.0354592
0.0375918
0.0420175
0.0490189
0.0585661
0.0701078
0.0825029
0.0941956
0.103604
0.10955
0.111548
0.109821
0.105111
0.0983868
0.0906263
0.111831
0.101584
0.0912208
0.0811616
0.0717404
0.0631793
0.0556024
0.049086
0.0436976
0.039529
0.0367309
0.0355509
0.0363646
0.0396713
0.0460062
0.0557254
0.0686907
0.0839974
0.0999498
0.114394
0.125299
0.131342
0.132175
0.128427
0.121182
0.111831
0.13696
0.124699
0.111763
0.0988963
0.0866752
0.0754887
0.065535
0.0569007
0.0496234
0.0437411
0.0393391
0.0365976
0.0358438
0.0375912
0.0425226
0.0513432
0.0644525
0.0815029
0.101083
0.12079
0.137797
0.149656
0.155025
0.153875
0.147291
0.13696
0.165158
0.151555
0.136139
0.120207
0.104756
0.0904572
0.0776629
0.0665148
0.0570372
0.0492129
0.043045
0.0386148
0.0361447
0.0360659
0.0390651
0.0460454
0.0578927
0.0749982
0.0966772
0.120844
0.144252
0.163363
0.175392
0.179165
0.175144
0.165158
0.194407
0.180912
0.163752
0.144918
0.126031
0.108221
0.0921281
0.0780351
0.0659975
0.0559596
0.0478415
0.0416114
0.0373549
0.0353536
0.0361701
0.0407029
0.0501086
0.0654463
0.0870149
0.113635
0.142371
0.169032
0.189403
0.200593
0.201815
0.194407
0.221081
0.210171
0.19293
0.172081
0.150036
0.128598
0.108888
0.0914671
0.0765096
0.0639676
0.0536976
0.0455586
0.0394909
0.0355966
0.0342351
0.0361289
0.0424216
0.0545382
0.0736671
0.0998859
0.13134
0.164109
0.193074
0.213582
0.222916
0.221081
0.240255
0.235193
0.220588
0.199616
0.175488
0.15086
0.127554
0.106608
0.0884588
0.0731543
0.0605369
0.0503809
0.0424937
0.0367998
0.033432
0.0328449
0.0359425
0.0441287
0.0590746
0.0819997
0.112598
0.148201
0.1839
0.213893
0.233385
0.240255
0.246777
0.250821
0.242304
0.224141
0.200032
0.173482
0.147195
0.12291
0.101522
0.083317
0.0682125
0.0559523
0.0462438
0.0388591
0.0337218
0.0310078
0.0312784
0.0356254
0.0456955
0.0633317
0.0896468
0.123812
0.162323
0.199498
0.229139
0.246777
0.237185
0.252278
0.253094
0.241264
0.220228
0.19401
0.166181
0.139345
0.11507
0.0940695
0.076475
0.0620894
0.0505794
0.0416085
0.0349328
0.0304894
0.0285059
0.0296516
0.0351891
0.046951
0.0668369
0.0957153
0.132176
0.172022
0.20906
0.237185
0.211603
0.237136
0.248981
0.246565
0.232047
0.209216
0.18216
0.154321
0.128081
0.104777
0.0849299
0.0685331
0.0553028
0.0448583
0.0368443
0.0310207
0.0273498
0.0261148
0.028081
0.0346407
0.0477225
0.0691529
0.0994559
0.136689
0.176154
0.211603
0.1744
0.206902
0.228832
0.237174
0.231941
0.215704
0.192336
0.165762
0.13913
0.114516
0.0929998
0.0749228
0.0601717
0.04841
0.0392406
0.0323143
0.0274118
0.02453
0.0240049
0.0266741
0.0339992
0.0478973
0.0700016
0.100452
0.136866
0.1744
0.132861
0.167062
0.195447
0.213285
0.218266
0.210955
0.194105
0.171438
0.146523
0.122107
0.0999144
0.080775
0.0648816
0.0520509
0.0419279
0.0341274
0.0283273
0.0243429
0.0222115
0.0223137
0.025527
0.0333094
0.0474587
0.069325
0.0986616
0.132861
0.094433
0.125222
0.154992
0.178678
0.192357
0.194469
0.185963
0.169558
0.14863
0.12627
0.104766
0.0854917
0.0690561
0.0555408
0.0447279
0.0362738
0.0298272
0.0251095
0.0219808
0.0205205
0.0211411
0.024721
0.0326405
0.0464855
0.0672647
0.094433
0.0641415
0.088289
0.114824
0.139661
0.158522
0.168378
0.168311
0.159475
0.144376
0.125919
0.106658
0.0884209
0.0722611
0.0586059
0.047463
0.0386095
0.0317357
0.0265406
0.0227997
0.0204236
0.0195309
0.0205493
0.0243177
0.0320728
0.0451218
0.0641415
0.0435576
0.060295
0.0808851
0.102852
0.122702
0.137044
0.143679
0.142179
0.133741
0.120536
0.104944
0.088984
0.0740611
0.0609546
0.0499514
0.0410165
0.0339455
0.0284773
0.0243717
0.0214635
0.0197139
0.0192738
0.0205663
0.0243535
0.0316802
0.0435576
0.0315248
0.0419275
0.0560831
0.0729789
0.0904373
0.105657
0.116085
0.120226
0.117987
0.11048
0.0994815
0.08685
0.0741178
0.0623224
0.0520197
0.0433946
0.0363959
0.0308535
0.026565
0.0233545
0.0211164
0.0198571
0.0197487
0.0211892
0.0248356
0.0315248
0.0257449
0.0315942
0.0403438
0.0518756
0.0652008
0.0785381
0.0897558
0.0970369
0.09943
0.0970349
0.0907988
0.0820955
0.0723058
0.0625403
0.0535337
0.0456684
0.0390617
0.0336675
0.0293614
0.0260037
0.023482
0.0217442
0.0208332
0.0209279
0.0223845
0.0257449
0.0240917
0.0269882
0.0318513
0.0389152
0.0479266
0.0580269
0.0678406
0.0758335
0.0807825
0.0821252
0.0800397
0.0752652
0.0687969
0.0616011
0.0544383
0.0478037
0.041953
0.0369673
0.0328229
0.0294489
0.0267678
0.0247249
0.0233125
0.022598
0.0227551
0.0240917
0.025146
0.0261748
0.028453
0.0322658
0.0376752
0.0444045
0.0517656
0.0587622
0.0643542
0.0677641
0.0686798
0.0672725
0.0640573
0.0596883
0.0547831
0.049821
0.0451166
0.0408431
0.0370736
0.0338223
0.0310759
0.0288156
0.0270358
0.0257626
0.0250778
0.025146
0.0281672
0.0279334
0.0284801
0.0300426
0.0327613
0.0366315
0.0414088
0.0465913
0.051511
0.0555093
0.0581182
0.0591604
0.0587386
0.0571388
0.0547132
0.051789
0.0486267
0.0454147
0.042285
0.0393303
0.0366163
0.0341895
0.0320854
0.0303385
0.0290011
0.0281672
0.0328976
0.0316662
0.0309322
0.0308753
0.0316249
0.033269
0.0357859
0.0390016
0.0425957
0.0461671
0.0493342
0.0518218
0.0534955
0.0543403
0.0544101
0.0537842
0.0525484
0.0507986
0.0486486
0.0462309
0.0436851
0.0411423
0.0387121
0.0364796
0.0345153
0.0328976
0.0394042
0.0372125
0.0353564
0.0339831
0.0331928
0.03309
0.0337434
0.0351531
0.0372355
0.0398345
0.0427568
0.0458086
0.0488137
0.0516042
0.0540018
0.0558153
0.0568674
0.0570407
0.0563175
0.0547893
0.0526335
0.0500674
0.0473036
0.0445189
0.0418489
0.0394042
0.0479923
0.0447168
0.0416888
0.0390534
0.036889
0.0352935
0.0343626
0.0341727
0.0347699
0.0361687
0.0383579
0.0413025
0.0449271
0.049077
0.05348
0.0577408
0.0613947
0.064011
0.0653019
0.0651898
0.0638036
0.0614163
0.0583584
0.0549418
0.051421
0.0479923
0.0591939
0.0545852
0.0501716
0.046134
0.0425472
0.039501
0.0370921
0.0354204
0.0345877
0.0347006
0.0358754
0.0382316
0.0418585
0.0467446
0.0526874
0.059232
0.0656947
0.0712919
0.0753346
0.0774023
0.077422
0.0756306
0.0724565
0.0683819
0.0638437
0.0591939
0.0732465
0.0670024
0.0609476
0.0552684
0.0500788
0.045477
0.0415555
0.0384122
0.0361596
0.0349368
0.034923
0.0363435
0.0394454
0.0444212
0.0512768
0.0596844
0.0689083
0.0778833
0.0854521
0.0906698
0.0930388
0.0925746
0.0897104
0.0850896
0.0794121
0.0732465
0.0906263
0.0824504
0.0744173
0.0667566
0.0596621
0.0532669
0.0476672
0.0429488
0.0392085
0.0365757
0.035237
0.0354592
0.0375918
0.0420175
0.0490189
0.0585661
0.0701078
0.0825029
0.0941956
0.103604
0.10955
0.111548
0.109821
0.105111
0.0983868
0.0906263

VECTORS u double
-176.56 170.249 0.0
-177.034 169.749 0.0
-177.37 169.048 0.0
-177.645 168.17 0.0
-177.85 167.127 0.0
-177.958 165.941 0.0
-177.943 164.644 0.0
-177.776 163.274 0.0
-177.437 161.892 0.0
-176.92 160.589 0.0
-176.24 159.496 0.0
-175.454 158.785 0.0
-174.667 158.622 0.0
-174.014 159.093 0.0
-173.606 160.14 0.0
-173.483 161.58 0.0
-173.611 163.194 0.0
-173.917 164.798 0.0
-174.321 166.272 0.0
-174.763 167.546 0.0
-175.199 168.585 0.0
-175.606 169.371 0.0
-175.972 169.909 0.0
-176.285 170.193 0.0
-176.541 170.31 0.0
-176.56 170.249 0.0
-177.903 171.382 0.0
-178.324 171.029 0.0
-178.661 170.221 0.0
-178.95 169.273 0.0
-179.166 168.176 0.0
-179.28 166.945 0.0
-179.262 165.603 0.0
-179.083 164.183 0.0
-178.716 162.725 0.0
-178.142 161.298 0.0
-177.358 160.007 0.0
-176.4 159.014 0.0
-175.368 158.522 0.0
-174.431 158.698 0.0
-173.77 159.569 0.0
-173.486 160.979 0.0
-173.567 162.675 0.0
-173.923 164.422 0.0
-174.448 166.063 0.0
-175.054 167.513 0.0
-175.68 168.729 0.0
-176.3 169.699 0.0
-176.886 170.423 0.0
-177.494 170.912 0.0
-177.976 171.191 0.0
-177.903 171.382 0.0
-179.453 172.061 0.0
-179.714 171.877 0.0
-179.963 171.1 0.0
-180.224 170.131 0.0
-180.434 169 0.0
-180.548 167.733 0.0
-180.531 166.353 0.0
-180.353 164.888 0.0
-179.984 163.374 0.0
-179.399 161.857 0.0
-178.579 160.417 0.0
-177.531 159.183 0.0
-176.322 158.356 0.0
-175.112 158.163 0.0
-174.136 158.744 0.0
-173.59 160.028 0.0
-173.526 161.758 0.0
-173.863 163.643 0.0
-174.469 165.473 0.0
-175.224 167.13 0.0
-176.052 168.562 0.0
-176.902 169.748 0.0
-177.76 170.686 0.0
-178.601 171.361 0.0
-179.399 171.799 0.0
-179.453 172.061 0.0
-180.683 172.344 0.0
-180.954 172.256 0.0
-181.175 171.61 0.0
-181.415 170.688 0.0
-181.616 169.566 0.0
-181.73 168.286 0.0
-181.718 166.883 0.0
-181.547 165.387 0.0
-181.189 163.831 0.0
-180.619 162.253 0.0
-179.809 160.709 0.0
-178.745 159.294 0.0
-177.449 158.172 0.0
-176.035 157.584 0.0
-174.738 157.77 0.0
-173.845 158.799 0.0
-173.527 160.477 0.0
-173.756 162.472 0.0
-174.388 164.498 0.0
-175.269 166.384 0.0
-176.283 168.051 0.0
-177.364 169.466 0.0
-178.451 170.61 0.0
-179.528 171.459 0.0
-180.457 172.009 0.0
-180.683 172.344 0.0
-181.542 172.23 0.0
-181.919 172.263 0.0
-182.189 171.772 0.0
-182.446 170.946 0.0
-182.658 169.873 0.0
-182.782 168.611 0.0
-182.781 167.206 0.0
-182.625 165.695 0.0
-182.287 164.114 0.0
-181.743 162.497 0.0
-180.968 160.887 0.0
-179.937 159.35 0.0
-178.64 158.004 0.0
-177.128 157.056 0.0
-175.577 156.787 0.0
-174.306 157.418 0.0
-173.622 158.906 0.0
-173.626 160.936 0.0
-174.199 163.136 0.0
-175.149 165.252 0.0
-176.315 167.158 0.0
-177.583 168.796 0.0
-178.874 170.137 0.0
-180.119 171.141 0.0
-181.196 171.807 0.0
-181.542 172.23 0.0
-182.065 171.734 0.0
-182.586 171.918 0.0
-182.951 171.6 0.0
-183.263 170.906 0.0
-183.511 169.921 0.0
-183.664 168.71 0.0
-183.688 167.33 0.0
-183.556 165.826 0.0
-183.245 164.238 0.0
-182.734 162.602 0.0
-182.003 160.957 0.0
-181.028 159.348 0.0
-179.786 157.857 0.0
-178.279 156.632 0.0
-176.597 155.927 0.0
-175.001 156.051 0.0
-173.881 157.165 0.0
-173.52 159.085 0.0
-173.907 161.391 0.0
-174.839 163.716 0.0
-176.091 165.851 0.0
-177.501 167.705 0.0
-178.946 169.232 0.0
-180.345 170.393 0.0
-181.557 171.189 0.0
-182.065 171.734 0.0
-182.231 170.873 0.0
-182.926 171.233 0.0
-183.423 171.105 0.0
-183.825 170.574 0.0
-184.138 169.713 0.0
-184.341 168.59 0.0
-184.407 167.266 0.0
-184.313 165.794 0.0
-184.037 164.222 0.0
-183.565 162.59 0.0
-182.881 160.934 0.0
-181.969 159.294 0.0
-180.804 157.725 0.0
-179.367 156.324 0.0
-177.681 155.275 0.0
-175.895 154.878 0.0
-174.362 155.449 0.0
-173.517 157.039 0.0
-173.554 159.309 0.0
-174.336 161.782 0.0
-175.589 164.129 0.0
-177.081 166.19 0.0
-178.647 167.904 0.0
-180.178 169.23 0.0
-181.537 170.177 0.0
-182.231 170.873 0.0
-182.028 169.672 0.0
-182.919 170.223 0.0
-183.576 170.301 0.0
-184.102 169.959 0.0
-184.508 169.256 0.0
-184.784 168.257 0.0
-184.912 167.024 0.0
-184.871 165.616 0.0
-184.644 164.086 0.0
-184.219 162.481 0.0
-183.586 160.84 0.0
-182.733 159.201 0.0
-181.645 157.606 0.0
-180.302 156.118 0.0
-178.692 154.853 0.0
-176.868 154.033 0.0
-175.058 153.996 0.0
-173.704 155.022 0.0
-173.226 157.016 0.0
-173.685 159.509 0.0
-174.821 162.021 0.0
-176.327 164.283 0.0
-177.974 166.187 0.0
-179.625 167.69 0.0
-181.131 168.807 0.0
-182.028 169.672 0.0
-181.449 168.167 0.0
-182.551 168.915 0.0
-183.393 169.207 0.0
-184.068 169.074 0.0
-184.595 168.559 0.0
-184.969 167.718 0.0
-185.18 166.613 0.0
-185.211 165.303 0.0
-185.048 163.848 0.0
-184.681 162.298 0.0
-184.103 160.698 0.0
-183.31 159.089 0.0
-182.293 157.509 0.0
-181.037 156 0.0
-179.527 154.636 0.0
-177.767 153.551 0.0
-175.857 153.002 0.0
-174.113 153.34 0.0
-173.04 154.768 0.0
-172.981 157.037 0.0
-173.837 159.605 0.0
-175.263 162.038 0.0
-176.949 164.135 0.0
-178.697 165.826 0.0
-180.345 167.124 0.0
-181.449 168.167 0.0
-180.498 166.407 0.0
-181.818 167.347 0.0
-182.861 167.854 0.0
-183.71 167.94 0.0
-184.382 167.635 0.0
-184.879 166.983 0.0
-185.194 166.04 0.0
-185.315 164.865 0.0
-185.233 163.518 0.0
-184.938 162.055 0.0
-184.426 160.526 0.0
-183.695 158.975 0.0
-182.742 157.442 0.0
-181.561 155.963 0.0
-180.142 154.586 0.0
-178.477 153.388 0.0
-176.595 152.521 0.0
-174.661 152.259 0.0
-173.077 152.937 0.0
-172.365 154.654 0.0
-172.735 157.04 0.0
-173.942 159.548 0.0
-175.596 161.815 0.0
-177.414 163.697 0.0
-179.19 165.185 0.0
-180.498 166.407 0.0
-179.184 164.447 0.0
-180.723 165.567 0.0
-181.978 166.279 0.0
-183.018 166.586 0.0
-183.858 166.503 0.0
-184.499 166.063 0.0
-184.94 165.311 0.0
-185.172 164.304 0.0
-185.188 163.1 0.0
-184.98 161.758 0.0
-184.546 160.332 0.0
-183.883 158.87 0.0
-182.994 157.414 0.0
-181.877 156.004 0.0
-180.53 154.674 0.0
-178.949 153.473 0.0
-177.143 152.48 0.0
-175.181 151.852 0.0
-173.3 151.861 0.0
-171.972 152.793 0.0
-171.673 154.645 0.0
-172.455 156.992 0.0
-173.961 159.335 0.0
-175.798 161.38 0.0
-177.682 163.051 0.0
-179.184 164.447 0.0
-177.518 162.354 0.0
-179.274 163.634 0.0
-180.747 164.534 0.0
-181.992 165.051 0.0
-183.017 165.19 0.0
-183.823 164.972 0.0
-184.41 164.434 0.0
-184.771 163.623 0.0
-184.902 162.594 0.0
-184.797 161.406 0.0
-184.453 160.115 0.0
-183.87 158.773 0.0
-183.048 157.427 0.0
-181.991 156.117 0.0
-180.702 154.878 0.0
-179.185 153.746 0.0
-177.45 152.764 0.0
-175.534 152.008 0.0
-173.557 151.622 0.0
-171.825 151.848 0.0
-170.838 152.907 0.0
-170.974 154.727 0.0
-172.13 156.9 0.0
-173.885 158.997 0.0
-175.84 160.807 0.0
-177.518 162.354 0.0
-175.519 160.23 0.0
-177.483 161.627 0.0
-179.177 162.684 0.0
-180.637 163.386 0.0
-181.861 163.734 0.0
-182.849 163.738 0.0
-183.599 163.422 0.0
-184.107 162.826 0.0
-184.37 161.997 0.0
-184.383 160.992 0.0
-184.143 159.867 0.0
-183.649 158.676 0.0
-182.902 157.47 0.0
-181.906 156.293 0.0
-180.669 155.181 0.0
-179.203 154.168 0.0
-177.526 153.282 0.0
-175.67 152.558 0.0
-173.708 152.054 0.0
-171.812 151.886 0.0
-170.334 152.241 0.0
-169.746 153.275 0.0
-170.3 154.906 0.0
-171.771 156.789 0.0
-173.701 158.599 0.0
-175.519 160.23 0.0
-173.239 158.256 0.0
-175.379 159.672 0.0
-177.287 160.82 0.0
-178.966 161.664 0.0
-180.4 162.19 0.0
-181.583 162.397 0.0
-182.511 162.299 0.0
-183.181 161.923 0.0
-183.59 161.311 0.0
-183.733 160.511 0.0
-183.609 159.578 0.0
-183.214 158.568 0.0
-182.551 157.532 0.0
-181.622 156.518 0.0
-180.441 155.567 0.0
-179.023 154.711 0.0
-177.398 153.974 0.0
-175.604 153.374 0.0
-173.702 152.928 0.0
-171.8 152.666 0.0
-170.103 152.656 0.0
-168.967 153.026 0.0
-168.789 153.889 0.0
-169.696 155.194 0.0
-171.388 156.715 0.0
-173.239 158.256 0.0
-170.848 156.764 0.0
-173.047 157.991 0.0
-175.124 159.098 0.0
-177.009 159.996 0.0
-178.654 160.641 0.0
-180.039 161.012 0.0
-181.156 161.107 0.0
-181.999 160.942 0.0
-182.565 160.547 0.0
-182.85 159.963 0.0
-182.851 159.242 0.0
-182.565 158.435 0.0
-181.994 157.597 0.0
-181.142 156.777 0.0
-180.024 156.017 0.0
-178.664 155.351 0.0
-177.098 154.801 0.0
-175.376 154.377 0.0
-173.559 154.077 0.0
-171.732 153.893 0.0
-170.018 153.818 0.0
-168.63 153.876 0.0
-167.878 154.143 0.0
-168.061 154.715 0.0
-169.21 155.614 0.0
-170.848 156.764 0.0
-168.732 156.202 0.0
-170.731 156.947 0.0
-172.827 157.779 0.0
-174.849 158.568 0.0
-176.677 159.22 0.0
-178.256 159.678 0.0
-179.561 159.916 0.0
-180.581 159.93 0.0
-181.31 159.736 0.0
-181.743 159.366 0.0
-181.876 158.863 0.0
-181.706 158.276 0.0
-181.235 157.658 0.0
-180.47 157.059 0.0
-179.429 156.52 0.0
-178.143 156.074 0.0
-176.658 155.74 0.0
-175.029 155.521 0.0
-173.325 155.406 0.0
-171.619 155.369 0.0
-170.003 155.377 0.0
-168.595 155.395 0.0
-167.576 155.416 0.0
-167.189 155.484 0.0
-167.634 155.706 0.0
-168.732 156.202 0.0
-167.381 156.825 0.0
-168.877 156.923 0.0
-170.711 157.221 0.0
-172.687 157.661 0.0
-174.598 158.135 0.0
-176.319 158.549 0.0
-177.787 158.836 0.0
-178.972 158.966 0.0