# vtk DataFile Version 2.0
Particulate Flow Equations Solution
ASCII
DATASET STRUCTURED_GRID
DIMENSIONS 26 26 1
POINTS 676 double
-10 -10 0
-9.23077 -10 0
-8.46154 -10 0
-7.69231 -10 0
-6.92308 -10 0
-6.15385 -10 0
-5.38462 -10 0
-4.61538 -10 0
-3.84615 -10 0
-3.07692 -10 0
-2.30769 -10 0
-1.53846 -10 0
-0.769231 -10 0
5.55112e-016 -10 0
0.769231 -10 0
1.53846 -10 0
2.30769 -10 0
3.07692 -10 0
3.84615 -10 0
4.61538 -10 0
5.38462 -10 0
6.15385 -10 0
6.92308 -10 0
7.69231 -10 0
8.46154 -10 0
10 -10 0
-10 -9.23077 0
-9.23077 -9.23077 0
-8.46154 -9.23077 0
-7.69231 -9.23077 0
-6.92308 -9.23077 0
-6.15385 -9.23077 0
-5.38462 -9.23077 0
-4.61538 -9.23077 0
-3.84615 -9.23077 0
-3.07692 -9.23077 0
-2.30769 -9.23077 0
-1.53846 -9.23077 0
-0.769231 -9.23077 0
5.55112e-016 -9.23077 0
0.769231 -9.23077 0
1.53846 -9.23077 0
2.30769 -9.23077 0
3.07692 -9.23077 0
3.84615 -9.23077 0
4.61538 -9.23077 0
5.38462 -9.23077 0
6.15385 -9.23077 0
6.92308 -9.23077 0
7.69231 -9.23077 0
8.46154 -9.23077 0
10 -9.23077 0
-10 -8.46154 0
-9.23077 -8.46154 0
-8.46154 -8.46154 0
-7.69231 -8.46154 0
-6.92308 -8.46154 0
-6.15385 -8.46154 0
-5.38462 -8.46154 0
-4.61538 -8.46154 0
-3.84615 -8.46154 0
-3.07692 -8.46154 0
-2.30769 -8.46154 0
-1.53846 -8.46154 0
-0.769231 -8.46154 0
5.55112e-016 -8.46154 0
0.769231 -8.46154 0
1.53846 -8.46154 0
2.30769 -8.46154 0
3.07692 -8.46154 0
3.84615 -8.46154 0
4.61538 -8.46154 0
5.38462 -8.46154 0
6.15385 -8.46154 0
6.92308 -8.46154 0
7.69231 -8.46154 0
8.46154 -8.46154 0
10 -8.46154 0
-10 -7.69231 0
-9.23077 -7.69231 0
-8.46154 -7.69231 0
-7.69231 -7.69231 0
-6.92308 -7.69231 0
-6.15385 -7.69231 0
-5.38462 -7.69231 0
-4.61538 -7.69231 0
-3.84615 -7.69231 0
-3.07692 -7.69231 0
-2.30769 -7.69231 0
-1.53846 -7.69231 0
-0.769231 -7.69231 0
5.55112e-016 -7.69231 0
0.769231 -7.69231 0
1.53846 -7.69231 0
2.30769 -7.69231 0
3.07692 -7.69231 0
3.84615 -7.69231 0
4.61538 -7.69231 0
5.38462 -7.69231 0
6.15385 -7.69231 0
6.92308 -7.69231 0
7.69231 -7.69231 0
8.46154 -7.69231 0
10 -7.69231 0
-10 -6.92308 0
-9.23077 -6.92308 0
-8.46154 -6.92308 0
-7.69231 -6.92308 0
-6.92308 -6.92308 0
-6.15385 -6.92308 0
-5.38462 -6.92308 0
-4.61538 -6.92308 0
-3.84615 -6.92308 0
-3.07692 -6.92308 0
-2.30769 -6.92308 0
-1.53846 -6.92308 0
-0.769231 -6.92308 0
5.55112e-016 -6.92308 0
0.769231 -6.92308 0
1.53846 -6.92308 0
2.30769 -6.92308 0
3.07692 -6.92308 0
3.84615 -6.92308 0
4.61538 -6.92308 0
5.38462 -6.92308 0
6.15385 -6.92308 0
6.92308 -6.92308 0
7.69231 -6.92308 0
8.46154 -6.92308 0
10 -6.92308 0
-10 -6.15385 0
-9.23077 -6.15385 0
-8.46154 -6.15385 0
-7.69231 -6.15385 0
-6.92308 -6.15385 0
-6.15385 -6.15385 0
-5.38462 -6.15385 0
-4.61538 -6.15385 0
-3.84615 -6.15385 0
-3.07692 -6.15385 0
-2.30769 -6.15385 0
-1.53846 -6.15385 0
-0.769231 -6.15385 0
5.55112e-016 -6.15385 0
0.769231 -6.15385 0
1.53846 -6.15385 0
2.30769 -6.15385 0
3.07692 -6.15385 0
3.84615 -6.15385 0
4.61538 -6.15385 0
5.38462 -6.15385 0
6.15385 -6.15385 0
6.92308 -6.15385 0
7.69231 -6.15385 0
8.46154 -6.15385 0
10 -6.15385 0
-10 -5.38462 0
-9.23077 -5.38462 0
-8.46154 -5.38462 0
-7.69231 -5.38462 0
-6.92308 -5.38462 0
-6.15385 -5.38462 0
-5.38462 -5.38462 0
-4.61538 -5.38462 0
-3.84615 -5.38462 0
-3.07692 -5.38462 0
-2.30769 -5.38462 0
-1.53846 -5.38462 0
-0.769231 -5.38462 0
5.55112e-016 -5.38462 0
0.769231 -5.38462 0
1.53846 -5.38462 0
2.30769 -5.38462 0
3.07692 -5.38462 0
3.84615 -5.38462 0
4.61538 -5.38462 0
5.38462 -5.38462 0
6.15385 -5.38462 0
6.92308 -5.38462 0
7.69231 -5.38462 0
8.46154 -5.38462 0
10 -5.38462 0
-10 -4.61538 0
-9.23077 -4.61538 0
-8.46154 -4.61538 0
-7.69231 -4.61538 0
-6.92308 -4.61538 0
-6.15385 -4.61538 0
-5.38462 -4.61538 0
-4.61538 -4.61538 0
-3.84615 -4.61538 0
-3.07692 -4.61538 0
-2.30769 -4.61538 0
-1.53846 -4.61538 0
-0.769231 -4.61538 0
5.55112e-016 -4.61538 0
0.769231 -4.61538 0
1.53846 -4.61538 0
2.30769 -4.61538 0
3.07692 -4.61538 0
3.84615 -4.61538 0
4.61538 -4.61538 0
5.38462 -4.61538 0
6.15385 -4.61538 0
6.92308 -4.61538 0
7.69231 -4.61538 0
8.46154 -4.61538 0
10 -4.61538 0
-10 -3.84615 0
-9.23077 -3.84615 0
-8.46154 -3.84615 0
-7.69231 -3.84615 0
-6.92308 -3.84615 0
-6.15385 -3.84615 0
-5.38462 -3.84615 0
-4.61538 -3.84615 0
-3.84615 -3.84615 0
-3.07692 -3.84615 0
-2.30769 -3.84615 0
-1.53846 -3.84615 0
-0.769231 -3.84615 0
5.55112e-016 -3.84615 0
0.769231 -3.84615 0
1.53846 -3.84615 0
2.30769 -3.84615 0
3.07692 -3.84615 0
3.84615 -3.84615 0
4.61538 -3.84615 0
5.38462 -3.84615 0
6.15385 -3.84615 0
6.92308 -3.84615 0
7.69231 -3.84615 0
8.46154 -3.84615 0
10 -3.84615 0
-10 -3.07692 0
-9.23077 -3.07692 0
-8.46154 -3.07692 0
-7.69231 -3.07692 0
-6.92308 -3.07692 0
-6.15385 -3.07692 0
-5.38462 -3.07692 0
-4.61538 -3.07692 0
-3.84615 -3.07692 0
-3.07692 -3.07692 0
-2.30769 -3.07692 0
-1.53846 -3.07692 0
-0.769231 -3.07692 0
5.55112e-016 -3.07692 0
0.769231 -3.07692 0
1.53846 -3.07692 0
2.30769 -3.07692 0
3.07692 -3.07692 0
3.84615 -3.07692 0
4.61538 -3.07692 0
5.38462 -3.07692 0
6.15385 -3.07692 0
6.92308 -3.07692 0
7.69231 -3.07692 0
8.46154 -3.07692 0
10 -3.07692 0
-10 -2.30769 0
-9.23077 -2.30769 0
-8.46154 -2.30769 0
-7.69231 -2.30769 0
-6.92308 -2.30769 0
-6.15385 -2.30769 0
-5.38462 -2.30769 0
-4.61538 -2.30769 0
-3.84615 -2.30769 0
-3.07692 -2.30769 0
-2.30769 -2.30769 0
-1.53846 -2.30769 0
-0.769231 -2.30769 0
5.55112e-016 -2.30769 0
0.769231 -2.30769 0
1.53846 -2.30769 0
2.30769 -2.30769 0
3.07692 -2.30769 0
3.84615 -2.30769 0
4.61538 -2.30769 0
5.38462 -2.30769 0
6.15385 -2.30769 0
6.92308 -2.30769 0
7.69231 -2.30769 0
8.46154 -2.30769 0
10 -2.30769 0
-10 -1.53846 0
-9.23077 -1.53846 0
-8.46154 -1.53846 0
-7.69231 -1.53846 0
-6.92308 -1.53846 0
-6.15385 -1.53846 0
-5.38462 -1.53846 0
-4.61538 -1.53846 0
-3.84615 -1.53846 0
-3.07692 -1.53846 0
-2.30769 -1.53846 0
-1.53846 -1.53846 0
-0.769231 -1.53846 0
5.55112e-016 -1.53846 0
0.769231 -1.53846 0
1.53846 -1.53846 0
2.30769 -1.53846 0
3.07692 -1.53846 0
3.84615 -1.53846 0
4.61538 -1.53846 0
5.38462 -1.53846 0
6.15385 -1.53846 0
6.92308 -1.53846 0
7.69231 -1.53846 0
8.46154 -1.53846 0
10 -1.53846 0
-10 -0.769231 0
-9.23077 -0.769231 0
-8.46154 -0.769231 0
-7.69231 -0.769231 0
-6.92308 -0.769231 0
-6.15385 -0.769231 0
-5.38462 -0.769231 0
-4.61538 -0.769231 0
-3.84615 -0.769231 0
-3.07692 -0.769231 0
-2.30769 -0.769231 0
-1.53846 -0.769231 0
-0.769231 -0.769231 0
5.55112e-016 -0.769231 0
0.769231 -0.769231 0
1.53846 -0.769231 0
2.30769 -0.769231 0
3.07692 -0.769231 0
3.84615 -0.769231 0
4.61538 -0.769231 0
5.38462 -0.769231 0
6.15385 -0.769231 0
6.92308 -0.769231 0
7.69231 -0.769231 0
8.46154 -0.769231 0
10 -0.769231 0
-10 5.55112e-016 0
-9.23077 5.55112e-016 0
-8.46154 5.55112e-016 0
-7.69231 5.55112e-016 0
-6.92308 5.55112e-016 0
-6.15385 5.55112e-016 0
-5.38462 5.55112e-016 0
-4.61538 5.55112e-016 0
-3.84615 5.55112e-016 0
-3.07692 5.55112e-016 0
-2.30769 5.55112e-016 0
-1.53846 5.55112e-016 0
-0.769231 5.55112e-016 0
5.55112e-016 5.55112e-016 0
0.769231 5.55112e-016 0
1.53846 5.55112e-016 0
2.30769 5.55112e-016 0
3.07692 5.55112e-016 0
3.84615 5.55112e-016 0
4.61538 5.55112e-016 0
5.38462 5.55112e-016 0
6.15385 5.55112e-016 0
6.92308 5.55112e-016 0
7.69231 5.55112e-016 0
8.46154 5.55112e-016 0
10 5.55112e-016 0
-10 0.769231 0
-9.23077 0.769231 0
-8.46154 0.769231 0
-7.69231 0.769231 0
-6.92308 0.769231 0
-6.15385 0.769231 0
-5.38462 0.769231 0
-4.61538 0.769231 0
-3.84615 0.769231 0
-3.07692 0.769231 0
-2.30769 0.769231 0
-1.53846 0.769231 0
-0.769231 0.769231 0
5.55112e-016 0.769231 0
0.769231 0.769231 0
1.53846 0.769231 0
2.30769 0.769231 0
3.07692 0.769231 0
3.84615 0.769231 0
4.61538 0.769231 0
5.38462 0.769231 0
6.15385 0.769231 0
6.92308 0.769231 0
7.69231 0.769231 0
8.46154 0.769231 0
10 0.769231 0
-10 1.53846 0
-9.23077 1.53846 0
-8.46154 1.53846 0
-7.69231 1.53846 0
-6.92308 1.53846 0
-6.15385 1.53846 0
-5.38462 1.53846 0
-4.61538 1.53846 0
-3.84615 1.53846 0
-3.07692 1.53846 0
-2.30769 1.53846 0
-1.53846 1.53846 0
-0.769231 1.53846 0
5.55112e-016 1.53846 0
0.769231 1.53846 0
1.53846 1.53846 0
2.30769 1.53846 0
3.07692 1.53846 0
3.84615 1.53846 0
4.61538 1.53846 0
5.38462 1.53846 0
6.15385 1.53846 0
6.92308 1.53846 0
7.69231 1.53846 0
8.46154 1.53846 0
10 1.53846 0
-10 2.30769 0
-9.23077 2.30769 0
-8.46154 2.30769 0
-7.69231 2.30769 0
-6.92308 2.30769 0
-6.15385 2.30769 0
-5.38462 2.30769 0
-4.61538 2.30769 0
-3.84615 2.30769 0
-3.07692 2.30769 0
-2.30769 2.30769 0
-1.53846 2.30769 0
-0.769231 2.30769 0
5.55112e-016 2.30769 0
0.769231 2.30769 0
1.53846 2.30769 0
2.30769 2.30769 0
3.07692 2.30769 0
3.84615 2.30769 0
4.61538 2.30769 0
5.38462 2.30769 0
6.15385 2.30769 0
6.92308 2.30769 0
7.69231 2.30769 0
8.46154 2.30769 0
10 2.30769 0
-10 3.07692 0
-9.23077 3.07692 0
-8.46154 3.07692 0
-7.69231 3.07692 0
-6.92308 3.07692 0
-6.15385 3.07692 0
-5.38462 3.07692 0
-4.61538 3.07692 0
-3.84615 3.07692 0
-3.07692 3.07692 0
-2.30769 3.07692 0
-1.53846 3.07692 0
-0.769231 3.07692 0
5.55112e-016 3.07692 0
0.769231 3.07692 0
1.53846 3.07692 0
2.30769 3.07692 0
3.07692 3.07692 0
3.84615 3.07692 0
4.61538 3.07692 0
5.38462 3.07692 0
6.15385 3.07692 0
6.92308 3.07692 0
7.69231 3.07692 0
8.46154 3.07692 0
10 3.07692 0
-10 3.84615 0
-9.23077 3.84615 0
-8.46154 3.84615 0
-7.69231 3.84615 0
-6.92308 3.84615 0
-6.15385 3.84615 0
-5.38462 3.84615 0
-4.61538 3.84615 0
-3.84615 3.84615 0
-3.07692 3.84615 0
-2.30769 3.84615 0
-1.53846 3.84615 0
-0.769231 3.84615 0
5.55112e-016 3.84615 0
0.769231 3.84615 0
1.53846 3.84615 0
2.30769 3.84615 0
3.07692 3.84615 0
3.84615 3.84615 0
4.61538 3.84615 0
5.38462 3.84615 0
6.15385 3.84615 0
6.92308 3.84615 0
7.69231 3.84615 0
8.46154 3.84615 0
10 3.84615 0
-10 4.61538 0
-9.23077 4.61538 0
-8.46154 4.61538 0
-7.69231 4.61538 0
-6.92308 4.61538 0
-6.15385 4.61538 0
-5.38462 4.61538 0
-4.61538 4.61538 0
-3.84615 4.61538 0
-3.07692 4.61538 0
-2.30769 4.61538 0
-1.53846 4.61538 0
-0.769231 4.61538 0
5.55112e-016 4.61538 0
0.769231 4.61538 0
1.53846 4.61538 0
2.30769 4.61538 0
3.07692 4.61538 0
3.84615 4.61538 0
4.61538 4.61538 0
5.38462 4.61538 0
6.15385 4.61538 0
6.92308 4.61538 0
7.69231 4.61538 0
8.46154 4.61538 0
10 4.61538 0
-10 5.38462 0
-9.23077 5.38462 0
-8.46154 5.38462 0
-7.69231 5.38462 0
-6.92308 5.38462 0
-6.15385 5.38462 0
-5.38462 5.38462 0
-4.61538 5.38462 0
-3.84615 5.38462 0
-3.07692 5.38462 0
-2.30769 5.38462 0
-1.53846 5.38462 0
-0.769231 5.38462 0
5.55112e-016 5.38462 0
0.769231 5.38462 0
1.53846 5.38462 0
2.30769 5.38462 0
3.07692 5.38462 0
3.84615 5.38462 0
4.61538 5.38462 0
5.38462 5.38462 0
6.15385 5.38462 0
6.92308 5.38462 0
7.69231 5.38462 0
8.46154 5.38462 0
10 5.38462 0
-10 6.15385 0
-9.23077 6.15385 0
-8.46154 6.15385 0
-7.69231 6.15385 0
-6.92308 6.15385 0
-6.15385 6.15385 0
-5.38462 6.15385 0
-4.61538 6.15385 0
-3.84615 6.15385 0
-3.07692 6.15385 0
-2.30769 6.15385 0
-1.53846 6.15385 0
-0.769231 6.15385 0
5.55112e-016 6.15385 0
0.769231 6.15385 0
1.53846 6.15385 0
2.30769 6.15385 0
3.07692 6.15385 0
3.84615 6.15385 0
4.61538 6.15385 0
5.38462 6.15385 0
6.15385 6.15385 0
6.92308 6.15385 0
7.69231 6.15385 0
8.46154 6.15385 0
10 6.15385 0
-10 6.92308 0
-9.23077 6.92308 0
-8.46154 6.92308 0
-7.69231 6.92308 0
-6.92308 6.92308 0
-6.15385 6.92308 0
-5.38462 6.92308 0
-4.61538 6.92308 0
-3.84615 6.92308 0
-3.07692 6.92308 0
-2.30769 6.92308 0
-1.53846 6.92308 0
-0.769231 6.92308 0
5.55112e-016 6.92308 0
0.769231 6.92308 0
1.53846 6.92308 0
2.30769 6.92308 0
3.07692 6.92308 0
3.84615 6.92308 0
4.61538 6.92308 0
5.38462 6.92308 0
6.15385 6.92308 0
6.92308 6.92308 0
7.69231 6.92308 0
8.46154 6.92308 0
10 6.92308 0
-10 7.69231 0
-9.23077 7.69231 0
-8.46154 7.69231 0
-7.69231 7.69231 0
-6.92308 7.69231 0
-6.15385 7.69231 0
-5.38462 7.69231 0
-4.61538 7.69231 0
-3.84615 7.69231 0
-3.07692 7.69231 0
-2.30769 7.69231 0
-1.53846 7.69231 0
-0.769231 7.69231 0
5.55112e-016 7.69231 0
0.769231 7.69231 0
1.53846 7.69231 0
2.30769 7.69231 0
3.07692 7.69231 0
3.84615 7.69231 0
4.61538 7.69231 0
5.38462 7.69231 0
6.15385 7.69231 0
6.92308 7.69231 0
7.69231 7.69231 0
8.46154 7.69231 0
10 7.69231 0
-10 8.46154 0
-9.23077 8.46154 0
-8.46154 8.46154 0
-7.69231 8.46154 0
-6.92308 8.46154 0
-6.15385 8.46154 0
-5.38462 8.46154 0
-4.61538 8.46154 0
-3.84615 8.46154 0
-3.07692 8.46154 0
-2.30769 8.46154 0
-1.53846 8.46154 0
-0.769231 8.46154 0
5.55112e-016 8.46154 0
0.769231 8.46154 0
1.53846 8.46154 0
2.30769 8.46154 0
3.07692 8.46154 0
3.84615 8.46154 0
4.61538 8.46154 0
5.38462 8.46154 0
6.15385 8.46154 0
6.92308 8.46154 0
7.69231 8.46154 0
8.46154 8.46154 0
10 8.46154 0
-10 10 0
-9.23077 10 0
-8.46154 10 0
-7.69231 10 0
-6.92308 10 0
-6.15385 10 0
-5.38462 10 0
-4.61538 10 0
-3.84615 10 0
-3.07692 10 0
-2.30769 10 0
-1.53846 10 0
-0.769231 10 0
5.55112e-016 10 0
0.769231 10 0
1.53846 10 0
2.30769 10 0
3.07692 10 0
3.84615 10 0
4.61538 10 0
5.38462 10 0
6.15385 10 0
6.92308 10 0
7.69231 10 0
8.46154 10 0
10 10 0

POINT_DATA 676
SCALARS h double 1
LOOkUP_TABLE default
0.177768
0.168861
0.154744
0.138031
0.120982
0.105033
0.0908792
0.0787111
0.06844
0.0598681
0.0527902
0.0470508
0.0425805
0.0394307
0.0378236
0.0382231
0.0414095
0.0484853
0.0606554
0.0786295
0.101757
0.127454
0.15152
0.169548
0.178462
0.177768
0.180749
0.17845
0.168365
0.153261
0.135964
0.118661
0.102674
0.0885955
0.0765483
0.0664075
0.0579603
0.0509993
0.0453733
0.0410218
0.0380123
0.0365951
0.0372833
0.0409337
0.0487396
0.0619587
0.0812149
0.105598
0.132071
0.156217
0.173309
0.180749
0.173842
0.179808
0.176208
0.16515
0.149522
0.13212
0.114984
0.0992932
0.0855443
0.0738075
0.0639388
0.0557251
0.0489665
0.0435222
0.039344
0.0365155
0.0353125
0.0362895
0.0403634
0.0487865
0.0628268
0.0829726
0.10805
0.134654
0.158089
0.173842
0.156778
0.171012
0.175539
0.170898
0.159317
0.143713
0.126707
0.110146
0.0950638
0.0818766
0.0706216
0.0611538
0.0532726
0.0467947
0.0415948
0.0376394
0.0350276
0.0340574
0.035314
0.039754
0.0486488
0.0632245
0.0837805
0.108863
0.134759
0.156778
0.132167
0.152435
0.164916
0.168136
0.162825
0.151271
0.136226
0.120069
0.104436
0.0902275
0.0777946
0.0671632
0.058203
0.0507374
0.0446061
0.0397038
0.0360129
0.0336476
0.0329224
0.0344403
0.0391686
0.0483488
0.0630884
0.083466
0.107723
0.132167
0.104646
0.127142
0.145287
0.155999
0.15814
0.152611
0.141588
0.127559
0.112621
0.098195
0.0850598
0.0735256
0.0636238
0.0552515
0.0482643
0.0425304
0.0379666
0.0345719
0.0324733
0.0319941
0.0337372
0.0386434
0.0478661
0.0623321
0.0818816
0.104646
0.0791539
0.099955
0.120074
0.135949
0.144979
0.146364
0.141038
0.13096
0.118293
0.104834
0.0917982
0.079864
0.0693175
0.0602098
0.0524748
0.0460051
0.0407002
0.0364994
0.0334174
0.0315895
0.0313383
0.0332455
0.0381863
0.0471818
0.0609411
0.0791539
0.0590517
0.0755577
0.0940295
0.111595
0.125208
0.13277
0.133729
0.128953
0.120117
0.109029
0.0971922
0.0856346
0.0749527
0.0654247
0.0571314
0.0500484
0.0441077
0.0392396
0.035405
0.0326314
0.0310577
0.0309949
0.0329841
0.0378073
0.0463216
0.0590517
0.0453724
0.0568318
0.0713793
0.0873965
0.102415
0.113942
0.120321
0.12116
0.117191
0.109769
0.100353
0.0901684
0.0800822
0.0706291
0.062092
0.0545874
0.0481343
0.042703
0.0382525
0.0347627
0.0322708
0.030914
0.0309824
0.0329631
0.037526
0.0453724
0.037373
0.0443992
0.0544391
0.0669757
0.0805879
0.0932545
0.102994
0.10851
0.109495
0.106499
0.100554
0.0927895
0.0841869
0.0754811
0.0671647
0.0595353
0.0527489
0.0468665
0.0418934
0.0378137
0.034623
0.0323645
0.0311692
0.0313
0.03318
0.037373
0.033623
0.0373387
0.0434549
0.0520691
0.0626757
0.0741044
0.0847554
0.0930852
0.098073
0.0994271
0.0974929
0.0929943
0.08677
0.0795971
0.0721091
0.0647776
0.0579243
0.0517452
0.0463401
0.0417445
0.0379629
0.0350029
0.0329101
0.0318061
0.031922
0.033623
0.0328074
0.0342363
0.0374074
0.0426189
0.0498836
0.0587721
0.068363
0.0774272
0.084772
0.0895624
0.0914694
0.090626
0.0874758
0.0826115
0.076652
0.0701645
0.0636198
0.0573712
0.0516545
0.0466034
0.0422782
0.0386989
0.0358811
0.0338708
0.0327775
0.0328074
0.0340202
0.0338702
0.0349631
0.0375883
0.041942
0.0480225
0.0554968
0.0636746
0.0716313
0.0784316
0.0833434
0.085955
0.0861877
0.08424
0.080509
0.0755036
0.0697607
0.0637702
0.0579245
0.0524973
0.0476516
0.0434672
0.0399755
0.0371978
0.0351781
0.0340202
0.0367478
0.0354241
0.0350269
0.0357727
0.0378662
0.0414687
0.0465928
0.0530137
0.0602421
0.0675863
0.074278
0.0796112
0.0830537
0.0843192
0.0833988
0.0805455
0.0762075
0.0709268
0.0652329
0.0595637
0.0542307
0.0494225
0.0452341
0.0417056
0.0388608
0.0367478
0.0407637
0.0384466
0.0368851
0.0362226
0.0366108
0.0382299
0.0412308
0.0456661
0.0514211
0.0581723
0.0653909
0.0723922
0.078427
0.082807
0.0850438
0.0849571
0.0827068
0.0787295
0.0736084
0.0679332
0.0621963
0.056748
0.0517998
0.0474587
0.0437695
0.0407637
0.0460357
0.0427486
0.0401517
0.0383321
0.0373788
0.0374337
0.0386675
0.0412458
0.0452791
0.0507594
0.0574943
0.0650538
0.0727608
0.0797574
0.0851647
0.0882945
0.0888302
0.0868893
0.0829464
0.0776647
0.071717
0.0656602
0.0598849
0.054623
0.0499888
0.0460357
0.0526639
0.0483188
0.0446739
0.0417797
0.0396695
0.0384317
0.0382037
0.0391644
0.0415145
0.0454356
0.0510218
0.0581799
0.0665219
0.0753069
0.0835043
0.0900063
0.0939265
0.0948467
0.0928964
0.0886425
0.0828689
0.0763555
0.0697334
0.0634329
0.0577016
0.0526639
0.0608416
0.055268
0.0504579
0.0464468
0.0432232
0.0408224
0.0393297
0.0388882
0.0397008
0.0420199
0.0461101
0.0521637
0.06016
0.0696998
0.079908
0.0895137
0.0971413
0.101709
0.102738
0.100432
0.0955085
0.0889144
0.081558
0.0741497
0.0671559
0.0608416
0.070822
0.0637933
0.0576208
0.0523536
0.0479511
0.0444011
0.0417327
0.0400321
0.0394575
0.0402497
0.0427283
0.0472525
0.0541119
0.0633337
0.0744547
0.0863921
0.0975646
0.106291
0.111307
0.112127
0.109098
0.10315
0.09543
0.0869907
0.07862
0.070822
0.0828692
0.0741442
0.0663567
0.0596184
0.0538836
0.0491043
0.045255
0.0423586
0.0405071
0.0398828
0.0407768
0.0435912
0.0487924
0.0567676
0.0675677
0.0806084
0.0945212
0.107345
0.117067
0.122267
0.122524
0.118403
0.111104
0.102004
0.0923028
0.0828692
0.0971704
0.0865693
0.0769025
0.0684259
0.061135
0.0549673
0.0498518
0.0457476
0.0426731
0.0407311
0.0401362
0.0412424
0.0445492
0.0506426
0.0600075
0.0726896
0.0879212
0.103967
0.118427
0.12895
0.134012
0.133336
0.127783
0.118869
0.108214
0.0971704
0.11368
0.10122
0.0894801
0.078992
0.0698745
0.0620956
0.055558
0.0501647
0.0458604
0.0426619
0.0406877
0.0401931
0.0416059
0.0455369
0.0527031
0.0636821
0.0784794
0.0960757
0.114295
0.130257
0.141295
0.145857
0.143897
0.136639
0.125942
0.11368
0.131886
0.117983
0.104193
0.0915025
0.0802903
0.0706382
0.0624663
0.0556402
0.0500382
0.0455933
0.0423247
0.0403719
0.0400373
0.0418323
0.0464901
0.054865
0.0676153
0.0846627
0.104668
0.124955
0.142156
0.153348
0.15704
0.153509
0.144383
0.131886
0.150544
0.136256
0.120871
0.106023
0.0925439
0.0807685
0.0707184
0.0622648
0.0552392
0.0495003
0.0449741
0.0416863
0.0398013
0.0396739
0.0419055
0.0473579
0.057021
0.0716115
0.0909168
0.113217
0.135307
0.153369
0.164309
0.166808
0.161529
0.150544
0.166792
0.154003
0.138265
0.121855
0.106271
0.0923009
0.0802079
0.0699543
0.0613702
0.0542631
0.0484804
0.0439472
0.0407008
0.0389338
0.039056
0.0417607
0.0480365
0.0589955
0.0753764
0.0967758
0.121049
0.144469
0.162852
0.173024
0.174013
0.166792
0.177768
0.168861
0.154744
0.138031
0.120982
0.105033
0.0908792
0.0787111
0.06844
0.0598681
0.0527902
0.0470508
0.0425805
0.0394307
0.0378236
0.0382231
0.0414095
0.0484853
0.0606554
0.0786295
0.101757
0.127454
0.15152
0.169548
0.178462
0.177768

VECTORS u double
-199.248 185.157 0.0
-199.938 185.397 0.0
-200.352 185.366 0.0
-200.561 185.075 0.0
-200.587 184.548 0.0
-200.443 183.822 0.0
-200.142 182.939 0.0
-199.698 181.944 0.0
-199.122 180.878 0.0
-198.426 179.773 0.0
-197.619 178.66 0.0
-196.712 177.566 0.0
-195.717 176.524 0.0
-194.656 175.583 0.0
-193.584 174.827 0.0
-192.609 174.391 0.0
-191.911 174.444 0.0
-191.686 175.099 0.0
-192.033 176.306 0.0
-192.875 177.855 0.0
-194.027 179.499 0.0
-195.301 181.043 0.0
-196.556 182.41 0.0
-197.688 183.497 0.0
-198.644 184.484 0.0
-199.248 185.157 0.0
-198.885 185.052 0.0
-199.664 185.537 0.0
-200.206 185.542 0.0
-200.549 185.313 0.0
-200.697 184.846 0.0
-200.657 184.169 0.0
-200.439 183.321 0.0
-200.057 182.347 0.0
-199.527 181.289 0.0
-198.865 180.185 0.0
-198.083 179.067 0.0
-197.196 177.96 0.0
-196.214 176.888 0.0
-195.153 175.883 0.0
-194.043 174.996 0.0
-192.946 174.314 0.0
-191.991 173.981 0.0
-191.38 174.168 0.0
-191.312 174.97 0.0
-191.852 176.307 0.0
-192.876 177.937 0.0
-194.196 179.632 0.0
-195.583 181.206 0.0
-197.064 182.634 0.0
-198.23 183.832 0.0
-198.885 185.052 0.0
-198.585 184.314 0.0
-199.343 185.227 0.0
-199.932 185.41 0.0
-200.371 185.312 0.0
-200.629 184.953 0.0
-200.693 184.362 0.0
-200.568 183.581 0.0
-200.263 182.655 0.0
-199.794 181.63 0.0
-199.178 180.548 0.0
-198.433 179.444 0.0
-197.576 178.345 0.0
-196.619 177.273 0.0
-195.578 176.251 0.0
-194.471 175.307 0.0
-193.333 174.493 0.0
-192.241 173.9 0.0
-191.343 173.677 0.0
-190.858 173.994 0.0
-190.978 174.93 0.0
-191.739 176.377 0.0
-192.969 178.083 0.0
-194.504 179.846 0.0
-196.101 181.467 0.0
-197.756 182.981 0.0
-198.585 184.314 0.0
-197.868 183.234 0.0
-198.771 184.339 0.0
-199.459 184.835 0.0
-200.004 184.961 0.0
-200.373 184.779 0.0
-200.549 184.331 0.0
-200.526 183.664 0.0
-200.312 182.826 0.0
-199.918 181.869 0.0
-199.364 180.839 0.0
-198.668 179.774 0.0
-197.851 178.708 0.0
-196.93 177.662 0.0
-195.921 176.658 0.0
-194.84 175.712 0.0
-193.709 174.854 0.0
-192.573 174.132 0.0
-191.522 173.64 0.0
-190.722 173.531 0.0
-190.408 173.969 0.0
-190.752 175.014 0.0
-191.761 176.547 0.0
-193.216 178.305 0.0
-194.973 180.085 0.0
-196.674 181.717 0.0
-197.868 183.234 0.0
-196.642 181.812 0.0
-197.788 183.109 0.0
-198.673 183.892 0.0
-199.373 184.281 0.0
-199.881 184.323 0.0
-200.185 184.066 0.0
-200.282 183.558 0.0
-200.174 182.85 0.0
-199.875 181.998 0.0
-199.4 181.053 0.0
-198.771 180.058 0.0
-198.009 179.051 0.0
-197.136 178.058 0.0
-196.171 177.099 0.0
-195.13 176.191 0.0
-194.035 175.348 0.0
-192.911 174.595 0.0
-191.813 173.981 0.0
-190.845 173.598 0.0
-190.187 173.593 0.0
-190.078 174.125 0.0
-190.657 175.231 0.0
-191.891 176.784 0.0
-193.53 178.508 0.0
-195.319 180.219 0.0
-196.642 181.812 0.0
-195.117 180.209 0.0
-196.471 181.63 0.0
-197.569 182.652 0.0
-198.455 183.297 0.0
-199.128 183.586 0.0
-199.582 183.553 0.0
-199.817 183.242 0.0
-199.835 182.705 0.0
-199.648 181.997 0.0
-199.271 181.172 0.0
-198.728 180.281 0.0
-198.04 179.364 0.0
-197.232 178.451 0.0
-196.325 177.566 0.0
-195.34 176.725 0.0
-194.297 175.938 0.0
-193.219 175.218 0.0
-192.14 174.586 0.0
-191.118 174.084 0.0
-190.27 173.799 0.0
-189.781 173.868 0.0
-189.873 174.432 0.0
-190.647 175.518 0.0
-192.023 176.982 0.0
-193.687 178.589 0.0
-195.117 180.209 0.0
-193.399 178.579 0.0
-194.888 180.03 0.0
-196.173 181.21 0.0
-197.252 182.071 0.0
-198.107 182.597 0.0
-198.73 182.8 0.0
-199.121 182.711 0.0
-199.282 182.375 0.0
-199.226 181.847 0.0
-198.968 181.18 0.0
-198.53 180.427 0.0
-197.936 179.632 0.0
-197.212 178.831 0.0
-196.383 178.048 0.0
-195.47 177.301 0.0
-194.497 176.6 0.0
-193.484 175.952 0.0
-192.458 175.363 0.0
-191.454 174.849 0.0
-190.538 174.443 0.0
-189.827 174.221 0.0
-189.499 174.304 0.0
-189.746 174.82 0.0
-190.637 175.786 0.0
-192.02 177.09 0.0
-193.399 178.579 0.0
-191.693 177.171 0.0
-193.173 178.483 0.0
-194.565 179.695 0.0
-195.805 180.693 0.0
-196.837 181.414 0.0
-197.637 181.838 0.0
-198.195 181.976 0.0
-198.515 181.861 0.0
-198.606 181.538 0.0
-198.485 181.06 0.0
-198.172 180.478 0.0
-197.694 179.84 0.0
-197.075 179.182 0.0
-196.344 178.531 0.0
-195.523 177.905 0.0
-194.637 177.315 0.0
-193.706 176.764 0.0
-192.752 176.252 0.0
-191.803 175.782 0.0
-190.895 175.359 0.0
-190.094 175.011 0.0
-189.512 174.798 0.0
-189.31 174.831 0.0
-189.654 175.223 0.0
-190.559 176.016 0.0
-191.693 177.171 0.0
-190.267 176.272 0.0
-191.535 177.235 0.0
-192.887 178.296 0.0
-194.203 179.299 0.0
-195.372 180.13 0.0
-196.333 180.728 0.0
-197.06 181.074 0.0
-197.546 181.178 0.0
-197.797 181.075 0.0
-197.827 180.808 0.0
-197.658 180.425 0.0
-197.314 179.973 0.0
-196.823 179.489 0.0
-196.211 178.998 0.0
-195.502 178.52 0.0
-194.72 178.062 0.0
-193.886 177.627 0.0
-193.02 177.213 0.0
-192.144 176.814 0.0
-191.283 176.427 0.0
-190.476 176.052 0.0
-189.785 175.711 0.0
-189.313 175.459 0.0
-189.205 175.39 0.0
-189.574 175.628 0.0
-190.267 176.272 0.0
-189.373 176.085 0.0
-190.248 176.549 0.0
-191.363 177.256 0.0
-192.605 178.082 0.0
-193.817 178.89 0.0
-194.89 179.572 0.0
-195.762 180.071 0.0
-196.407 180.369 0.0
-196.82 180.479 0.0
-197.011 180.431 0.0
-196.999 180.265 0.0
-196.807 180.023 0.0
-196.462 179.738 0.0
-195.988 179.434 0.0
-195.411 179.126 0.0
-194.751 178.82 0.0
-194.028 178.517 0.0
-193.262 178.212 0.0
-192.473 177.899 0.0
-191.681 177.57 0.0
-190.913 177.219 0.0
-190.206 176.847 0.0
-189.619 176.473 0.0
-189.242 176.145 0.0
-189.18 175.964 0.0
-189.373 176.085 0.0
-189.095 176.579 0.0
-189.535 176.564 0.0
-190.259 176.8 0.0
-191.244 177.271 0.0
-192.349 177.88 0.0
-193.431 178.512 0.0
-194.387 179.07 0.0
-195.158 179.503 0.0
-195.72 179.794 0.0
-196.069 179.953 0.0
-196.219 180.007 0.0
-196.19 179.987 0.0
-196.004 179.919 0.0
-195.685 179.821 0.0
-195.256 179.702 0.0
-194.734 179.565 0.0
-194.138 179.407 0.0
-193.485 179.221 0.0
-192.794 179.002 0.0
-192.084 178.741 0.0
-191.38 178.434 0.0
-190.708 178.077 0.0
-190.101 177.673 0.0
-189.611 177.239 0.0
-189.297 176.831 0.0
-189.095 176.579 0.0
-189.326 177.529 0.0
-189.435 177.19 0.0
-189.754 177.002 0.0
-190.36 177.038 0.0
-191.195 177.3 0.0
-192.141 177.721 0.0
-193.074 178.207 0.0
-193.902 178.679 0.0
-194.57 179.087 0.0
-195.056 179.417 0.0
-195.359 179.674 0.0
-195.492 179.871 0.0
-195.471 180.025 0.0
-195.317 180.143 0.0
-195.047 180.226 0.0
-194.676 180.27 0.0
-194.219 180.267 0.0
-193.691 180.21 0.0
-193.111 180.092 0.0
-192.497 179.907 0.0
-191.872 179.653 0.0
-191.26 179.328 0.0
-190.685 178.934 0.0
-190.176 178.472 0.0
-189.757 177.975 0.0
-189.326 177.529 0.0
-189.889 178.689 0.0
-189.812 178.187 0.0
-189.835 177.723 0.0
-190.077 177.39 0.0
-190.556 177.261 0.0
-191.228 177.354 0.0
-192.002 177.628 0.0
-192.778 178.013 0.0
-193.476 178.444 0.0
-194.05 178.878 0.0
-194.477 179.294 0.0
-194.755 179.687 0.0
-194.894 180.052 0.0
-194.905 180.384 0.0
-194.799 180.673 0.0
-194.587 180.904 0.0
-194.28 181.066 0.0
-193.888 181.145 0.0
-193.43 181.136 0.0
-192.923 181.035 0.0
-192.39 180.842 0.0
-191.854 180.558 0.0
-191.336 180.187 0.0
-190.855 179.732 0.0
-190.416 179.211 0.0
-189.889 178.689 0.0
-190.642 179.897 0.0
-190.49 179.33 0.0
-190.349 178.729 0.0
-190.334 178.163 0.0
-190.492 177.716 0.0
-190.837 177.463 0.0
-191.343 177.434 0.0
-191.945 177.613 0.0
-192.569 177.952 0.0
-193.149 178.396 0.0
-193.644 178.904 0.0
-194.033 179.445 0.0
-194.309 179.993 0.0
-194.473 180.525 0.0
-194.528 181.013 0.0
-194.477 181.434 0.0
-194.325 181.764 0.0
-194.079 181.989 0.0
-193.753 182.099 0.0
-193.365 182.091 0.0
-192.935 181.967 0.0
-192.486 181.732 0.0
-192.039 181.395 0.0
-191.608 180.957 0.0
-191.191 180.44 0.0
-190.642 179.897 0.0
-191.504 181.071 0.0
-191.335 180.485 0.0
-191.125 179.827 0.0
-190.969 179.142 0.0
-190.907 178.496 0.0
-190.972 177.967 0.0
-191.181 177.632 0.0
-191.527 177.534 0.0
-191.971 177.675 0.0
-192.459 178.024 0.0
-192.941 178.534 0.0
-193.38 179.155 0.0
-193.753 179.841 0.0
-194.045 180.542 0.0
-194.247 181.215 0.0
-194.352 181.819 0.0
-194.357 182.322 0.0
-194.264 182.7 0.0
-194.08 182.94 0.0
-193.82 183.038 0.0
-193.504 182.996 0.0
-193.151 182.822 0.0
-192.783 182.526 0.0
-192.413 182.115 0.0
-192.038 181.611 0.0
-191.504 181.071 0.0
-192.43 182.17 0.0
-192.274 181.585 0.0
-192.045 180.908 0.0
-191.827 180.17 0.0
-191.643 179.416 0.0
-191.518 178.71 0.0
-191.481 178.13 0.0
-191.559 177.753 0.0
-191.758 177.635 0.0
-192.062 177.793 0.0
-192.44 178.205 0.0
-192.851 178.823 0.0
-193.261 179.581 0.0
-193.64 180.41 0.0
-193.964 181.243 0.0
-194.212 182.02 0.0
-194.371 182.694 0.0
-194.434 183.233 0.0
-194.4 183.616 0.0
-194.279 183.836 0.0
-194.086 183.892 0.0
-193.84 183.794 0.0
-193.559 183.552 0.0
-193.258 183.178 0.0
-192.933 182.697 0.0
-192.43 182.17 0.0
-193.397 183.172 0.0
-193.266 182.598 0.0
-193.042 181.919 0.0
-192.803 181.16 0.0
-192.561 180.353 0.0
-192.328 179.544 0.0
-192.124 178.797 0.0
-191.981 178.19 0.0