# vtk DataFile Version 2.0
Particulate Flow Equations Solution
ASCII
DATASET STRUCTURED_GRID
DIMENSIONS 26 26 1
POINTS 676 double
-10 -10 0
-9.23077 -10 0
-8.46154 -10 0
-7.69231 -10 0
-6.92308 -10 0
-6.15385 -10 0
-5.38462 -10 0
-4.61538 -10 0
-3.84615 -10 0
-3.07692 -10 0
-2.30769 -10 0
-1.53846 -10 0
-0.769231 -10 0
5.55112e-016 -10 0
0.769231 -10 0
1.53846 -10 0
2.30769 -10 0
3.07692 -10 0
3.84615 -10 0
4.61538 -10 0
5.38462 -10 0
6.15385 -10 0
6.92308 -10 0
7.69231 -10 0
8.46154 -10 0
10 -10 0
-10 -9.23077 0
-9.23077 -9.23077 0
-8.46154 -9.23077 0
-7.69231 -9.23077 0
-6.92308 -9.23077 0
-6.15385 -9.23077 0
-5.38462 -9.23077 0
-4.61538 -9.23077 0
-3.84615 -9.23077 0
-3.07692 -9.23077 0
-2.30769 -9.23077 0
-1.53846 -9.23077 0
-0.769231 -9.23077 0
5.55112e-016 -9.23077 0
0.769231 -9.23077 0
1.53846 -9.23077 0
2.30769 -9.23077 0
3.07692 -9.23077 0
3.84615 -9.23077 0
4.61538 -9.23077 0
5.38462 -9.23077 0
6.15385 -9.23077 0
6.92308 -9.23077 0
7.69231 -9.23077 0
8.46154 -9.23077 0
10 -9.23077 0
-10 -8.46154 0
-9.23077 -8.46154 0
-8.46154 -8.46154 0
-7.69231 -8.46154 0
-6.92308 -8.46154 0
-6.15385 -8.46154 0
-5.38462 -8.46154 0
-4.61538 -8.46154 0
-3.84615 -8.46154 0
-3.07692 -8.46154 0
-2.30769 -8.46154 0
-1.53846 -8.46154 0
-0.769231 -8.46154 0
5.55112e-016 -8.46154 0
0.769231 -8.46154 0
1.53846 -8.46154 0
2.30769 -8.46154 0
3.07692 -8.46154 0
3.84615 -8.46154 0
4.61538 -8.46154 0
5.38462 -8.46154 0
6.15385 -8.46154 0
6.92308 -8.46154 0
7.69231 -8.46154 0
8.46154 -8.46154 0
10 -8.46154 0
-10 -7.69231 0
-9.23077 -7.69231 0
-8.46154 -7.69231 0
-7.69231 -7.69231 0
-6.92308 -7.69231 0
-6.15385 -7.69231 0
-5.38462 -7.69231 0
-4.61538 -7.69231 0
-3.84615 -7.69231 0
-3.07692 -7.69231 0
-2.30769 -7.69231 0
-1.53846 -7.69231 0
-0.769231 -7.69231 0
5.55112e-016 -7.69231 0
0.769231 -7.69231 0
1.53846 -7.69231 0
2.30769 -7.69231 0
3.07692 -7.69231 0
3.84615 -7.69231 0
4.61538 -7.69231 0
5.38462 -7.69231 0
6.15385 -7.69231 0
6.92308 -7.69231 0
7.69231 -7.69231 0
8.46154 -7.69231 0
10 -7.69231 0
-10 -6.92308 0
-9.23077 -6.92308 0
-8.46154 -6.92308 0
-7.69231 -6.92308 0
-6.92308 -6.92308 0
-6.15385 -6.92308 0
-5.38462 -6.92308 0
-4.61538 -6.92308 0
-3.84615 -6.92308 0
-3.07692 -6.92308 0
-2.30769 -6.92308 0
-1.53846 -6.92308 0
-0.769231 -6.92308 0
5.55112e-016 -6.92308 0
0.769231 -6.92308 0
1.53846 -6.92308 0
2.30769 -6.92308 0
3.07692 -6.92308 0
3.84615 -6.92308 0
4.61538 -6.92308 0
5.38462 -6.92308 0
6.15385 -6.92308 0
6.92308 -6.92308 0
7.69231 -6.92308 0
8.46154 -6.92308 0
10 -6.92308 0
-10 -6.15385 0
-9.23077 -6.15385 0
-8.46154 -6.15385 0
-7.69231 -6.15385 0
-6.92308 -6.15385 0
-6.15385 -6.15385 0
-5.38462 -6.15385 0
-4.61538 -6.15385 0
-3.84615 -6.15385 0
-3.07692 -6.15385 0
-2.30769 -6.15385 0
-1.53846 -6.15385 0
-0.769231 -6.15385 0
5.55112e-016 -6.15385 0
0.769231 -6.15385 0
1.53846 -6.15385 0
2.30769 -6.15385 0
3.07692 -6.15385 0
3.84615 -6.15385 0
4.61538 -6.15385 0
5.38462 -6.15385 0
6.15385 -6.15385 0
6.92308 -6.15385 0
7.69231 -6.15385 0
8.46154 -6.15385 0
10 -6.15385 0
-10 -5.38462 0
-9.23077 -5.38462 0
-8.46154 -5.38462 0
-7.69231 -5.38462 0
-6.92308 -5.38462 0
-6.15385 -5.38462 0
-5.38462 -5.38462 0
-4.61538 -5.38462 0
-3.84615 -5.38462 0
-3.07692 -5.38462 0
-2.30769 -5.38462 0
-1.53846 -5.38462 0
-0.769231 -5.38462 0
5.55112e-016 -5.38462 0
0.769231 -5.38462 0
1.53846 -5.38462 0
2.30769 -5.38462 0
3.07692 -5.38462 0
3.84615 -5.38462 0
4.61538 -5.38462 0
5.38462 -5.38462 0
6.15385 -5.38462 0
6.92308 -5.38462 0
7.69231 -5.38462 0
8.46154 -5.38462 0
10 -5.38462 0
-10 -4.61538 0
-9.23077 -4.61538 0
-8.46154 -4.61538 0
-7.69231 -4.61538 0
-6.92308 -4.61538 0
-6.15385 -4.61538 0
-5.38462 -4.61538 0
-4.61538 -4.61538 0
-3.84615 -4.61538 0
-3.07692 -4.61538 0
-2.30769 -4.61538 0
-1.53846 -4.61538 0
-0.769231 -4.61538 0
5.55112e-016 -4.61538 0
0.769231 -4.61538 0
1.53846 -4.61538 0
2.30769 -4.61538 0
3.07692 -4.61538 0
3.84615 -4.61538 0
4.61538 -4.61538 0
5.38462 -4.61538 0
6.15385 -4.61538 0
6.92308 -4.61538 0
7.69231 -4.61538 0
8.46154 -4.61538 0
10 -4.61538 0
-10 -3.84615 0
-9.23077 -3.84615 0
-8.46154 -3.84615 0
-7.69231 -3.84615 0
-6.92308 -3.84615 0
-6.15385 -3.84615 0
-5.38462 -3.84615 0
-4.61538 -3.84615 0
-3.84615 -3.84615 0
-3.07692 -3.84615 0
-2.30769 -3.84615 0
-1.53846 -3.84615 0
-0.769231 -3.84615 0
5.55112e-016 -3.84615 0
0.769231 -3.84615 0
1.53846 -3.84615 0
2.30769 -3.84615 0
3.07692 -3.84615 0
3.84615 -3.84615 0
4.61538 -3.84615 0
5.38462 -3.84615 0
6.15385 -3.84615 0
6.92308 -3.84615 0
7.69231 -3.84615 0
8.46154 -3.84615 0
10 -3.84615 0
-10 -3.07692 0
-9.23077 -3.07692 0
-8.46154 -3.07692 0
-7.69231 -3.07692 0
-6.92308 -3.07692 0
-6.15385 -3.07692 0
-5.38462 -3.07692 0
-4.61538 -3.07692 0
-3.84615 -3.07692 0
-3.07692 -3.07692 0
-2.30769 -3.07692 0
-1.53846 -3.07692 0
-0.769231 -3.07692 0
5.55112e-016 -3.07692 0
0.769231 -3.07692 0
1.53846 -3.07692 0
2.30769 -3.07692 0
3.07692 -3.07692 0
3.84615 -3.07692 0
4.61538 -3.07692 0
5.38462 -3.07692 0
6.15385 -3.07692 0
6.92308 -3.07692 0
7.69231 -3.07692 0
8.46154 -3.07692 0
10 -3.07692 0
-10 -2.30769 0
-9.23077 -2.30769 0
-8.46154 -2.30769 0
-7.69231 -2.30769 0
-6.92308 -2.30769 0
-6.15385 -2.30769 0
-5.38462 -2.30769 0
-4.61538 -2.30769 0
-3.84615 -2.30769 0
-3.07692 -2.30769 0
-2.30769 -2.30769 0
-1.53846 -2.30769 0
-0.769231 -2.30769 0
5.55112e-016 -2.30769 0
0.769231 -2.30769 0
1.53846 -2.30769 0
2.30769 -2.30769 0
3.07692 -2.30769 0
3.84615 -2.30769 0
4.61538 -2.30769 0
5.38462 -2.30769 0
6.15385 -2.30769 0
6.92308 -2.30769 0
7.69231 -2.30769 0
8.46154 -2.30769 0
10 -2.30769 0
-10 -1.53846 0
-9.23077 -1.53846 0
-8.46154 -1.53846 0
-7.69231 -1.53846 0
-6.92308 -1.53846 0
-6.15385 -1.53846 0
-5.38462 -1.53846 0
-4.61538 -1.53846 0
-3.84615 -1.53846 0
-3.07692 -1.53846 0
-2.30769 -1.53846 0
-1.53846 -1.53846 0
-0.769231 -1.53846 0
5.55112e-016 -1.53846 0
0.769231 -1.53846 0
1.53846 -1.53846 0
2.30769 -1.53846 0
3.07692 -1.53846 0
3.84615 -1.53846 0
4.61538 -1.53846 0
5.38462 -1.53846 0
6.15385 -1.53846 0
6.92308 -1.53846 0
7.69231 -1.53846 0
8.46154 -1.53846 0
10 -1.53846 0
-10 -0.769231 0
-9.23077 -0.769231 0
-8.46154 -0.769231 0
-7.69231 -0.769231 0
-6.92308 -0.769231 0
-6.15385 -0.769231 0
-5.38462 -0.769231 0
-4.61538 -0.769231 0
-3.84615 -0.769231 0
-3.07692 -0.769231 0
-2.30769 -0.769231 0
-1.53846 -0.769231 0
-0.769231 -0.769231 0
5.55112e-016 -0.769231 0
0.769231 -0.769231 0
1.53846 -0.769231 0
2.30769 -0.769231 0
3.07692 -0.769231 0
3.84615 -0.769231 0
4.61538 -0.769231 0
5.38462 -0.769231 0
6.15385 -0.769231 0
6.92308 -0.769231 0
7.69231 -0.769231 0
8.46154 -0.769231 0
10 -0.769231 0
-10 5.55112e-016 0
-9.23077 5.55112e-016 0
-8.46154 5.55112e-016 0
-7.69231 5.55112e-016 0
-6.92308 5.55112e-016 0
-6.15385 5.55112e-016 0
-5.38462 5.55112e-016 0
-4.61538 5.55112e-016 0
-3.84615 5.55112e-016 0
-3.07692 5.55112e-016 0
-2.30769 5.55112e-016 0
-1.53846 5.55112e-016 0
-0.769231 5.55112e-016 0
5.55112e-016 5.55112e-016 0
0.769231 5.55112e-016 0
1.53846 5.55112e-016 0
2.30769 5.55112e-016 0
3.07692 5.55112e-016 0
3.84615 5.55112e-016 0
4.61538 5.55112e-016 0
5.38462 5.55112e-016 0
6.15385 5.55112e-016 0
6.92308 5.55112e-016 0
7.69231 5.55112e-016 0
8.46154 5.55112e-016 0
10 5.55112e-016 0
-10 0.769231 0
-9.23077 0.769231 0
-8.46154 0.769231 0
-7.69231 0.769231 0
-6.92308 0.769231 0
-6.15385 0.769231 0
-5.38462 0.769231 0
-4.61538 0.769231 0
-3.84615 0.769231 0
-3.07692 0.769231 0
-2.30769 0.769231 0
-1.53846 0.769231 0
-0.769231 0.769231 0
5.55112e-016 0.769231 0
0.769231 0.769231 0
1.53846 0.769231 0
2.30769 0.769231 0
3.07692 0.769231 0
3.84615 0.769231 0
4.61538 0.769231 0
5.38462 0.769231 0
6.15385 0.769231 0
6.92308 0.769231 0
7.69231 0.769231 0
8.46154 0.769231 0
10 0.769231 0
-10 1.53846 0
-9.23077 1.53846 0
-8.46154 1.53846 0
-7.69231 1.53846 0
-6.92308 1.53846 0
-6.15385 1.53846 0
-5.38462 1.53846 0
-4.61538 1.53846 0
-3.84615 1.53846 0
-3.07692 1.53846 0
-2.30769 1.53846 0
-1.53846 1.53846 0
-0.769231 1.53846 0
5.55112e-016 1.53846 0
0.769231 1.53846 0
1.53846 1.53846 0
2.30769 1.53846 0
3.07692 1.53846 0
3.84615 1.53846 0
4.61538 1.53846 0
5.38462 1.53846 0
6.15385 1.53846 0
6.92308 1.53846 0
7.69231 1.53846 0
8.46154 1.53846 0
10 1.53846 0
-10 2.30769 0
-9.23077 2.30769 0
-8.46154 2.30769 0
-7.69231 2.30769 0
-6.92308 2.30769 0
-6.15385 2.30769 0
-5.38462 2.30769 0
-4.61538 2.30769 0
-3.84615 2.30769 0
-3.07692 2.30769 0
-2.30769 2.30769 0
-1.53846 2.30769 0
-0.769231 2.30769 0
5.55112e-016 2.30769 0
0.769231 2.30769 0
1.53846 2.30769 0
2.30769 2.30769 0
3.07692 2.30769 0
3.84615 2.30769 0
4.61538 2.30769 0
5.38462 2.30769 0
6.15385 2.30769 0
6.92308 2.30769 0
7.69231 2.30769 0
8.46154 2.30769 0
10 2.30769 0
-10 3.07692 0
-9.23077 3.07692 0
-8.46154 3.07692 0
-7.69231 3.07692 0
-6.92308 3.07692 0
-6.15385 3.07692 0
-5.38462 3.07692 0
-4.61538 3.07692 0
-3.84615 3.07692 0
-3.07692 3.07692 0
-2.30769 3.07692 0
-1.53846 3.07692 0
-0.769231 3.07692 0
5.55112e-016 3.07692 0
0.769231 3.07692 0
1.53846 3.07692 0
2.30769 3.07692 0
3.07692 3.07692 0
3.84615 3.07692 0
4.61538 3.07692 0
5.38462 3.07692 0
6.15385 3.07692 0
6.92308 3.07692 0
7.69231 3.07692 0
8.46154 3.07692 0
10 3.07692 0
-10 3.84615 0
-9.23077 3.84615 0
-8.46154 3.84615 0
-7.69231 3.84615 0
-6.92308 3.84615 0
-6.15385 3.84615 0
-5.38462 3.84615 0
-4.61538 3.84615 0
-3.84615 3.84615 0
-3.07692 3.84615 0
-2.30769 3.84615 0
-1.53846 3.84615 0
-0.769231 3.84615 0
5.55112e-016 3.84615 0
0.769231 3.84615 0
1.53846 3.84615 0
2.30769 3.84615 0
3.07692 3.84615 0
3.84615 3.84615 0
4.61538 3.84615 0
5.38462 3.84615 0
6.15385 3.84615 0
6.92308 3.84615 0
7.69231 3.84615 0
8.46154 3.84615 0
10 3.84615 0
-10 4.61538 0
-9.23077 4.61538 0
-8.46154 4.61538 0
-7.69231 4.61538 0
-6.92308 4.61538 0
-6.15385 4.61538 0
-5.38462 4.61538 0
-4.61538 4.61538 0
-3.84615 4.61538 0
-3.07692 4.61538 0
-2.30769 4.61538 0
-1.53846 4.61538 0
-0.769231 4.61538 0
5.55112e-016 4.61538 0
0.769231 4.61538 0
1.53846 4.61538 0
2.30769 4.61538 0
3.07692 4.61538 0
3.84615 4.61538 0
4.61538 4.61538 0
5.38462 4.61538 0
6.15385 4.61538 0
6.92308 4.61538 0
7.69231 4.61538 0
8.46154 4.61538 0
10 4.61538 0
-10 5.38462 0
-9.23077 5.38462 0
-8.46154 5.38462 0
-7.69231 5.38462 0
-6.92308 5.38462 0
-6.15385 5.38462 0
-5.38462 5.38462 0
-4.61538 5.38462 0
-3.84615 5.38462 0
-3.07692 5.38462 0
-2.30769 5.38462 0
-1.53846 5.38462 0
-0.769231 5.38462 0
5.55112e-016 5.38462 0
0.769231 5.38462 0
1.53846 5.38462 0
2.30769 5.38462 0
3.07692 5.38462 0
3.84615 5.38462 0
4.61538 5.38462 0
5.38462 5.38462 0
6.15385 5.38462 0
6.92308 5.38462 0
7.69231 5.38462 0
8.46154 5.38462 0
10 5.38462 0
-10 6.15385 0
-9.23077 6.15385 0
-8.46154 6.15385 0
-7.69231 6.15385 0
-6.92308 6.15385 0
-6.15385 6.15385 0
-5.38462 6.15385 0
-4.61538 6.15385 0
-3.84615 6.15385 0
-3.07692 6.15385 0
-2.30769 6.15385 0
-1.53846 6.15385 0
-0.769231 6.15385 0
5.55112e-016 6.15385 0
0.769231 6.15385 0
1.53846 6.15385 0
2.30769 6.15385 0
3.07692 6.15385 0
3.84615 6.15385 0
4.61538 6.15385 0
5.38462 6.15385 0
6.15385 6.15385 0
6.92308 6.15385 0
7.69231 6.15385 0
8.46154 6.15385 0
10 6.15385 0
-10 6.92308 0
-9.23077 6.92308 0
-8.46154 6.92308 0
-7.69231 6.92308 0
-6.92308 6.92308 0
-6.15385 6.92308 0
-5.38462 6.92308 0
-4.61538 6.92308 0
-3.84615 6.92308 0
-3.07692 6.92308 0
-2.30769 6.92308 0
-1.53846 6.92308 0
-0.769231 6.92308 0
5.55112e-016 6.92308 0
0.769231 6.92308 0
1.53846 6.92308 0
2.30769 6.92308 0
3.07692 6.92308 0
3.84615 6.92308 0
4.61538 6.92308 0
5.38462 6.92308 0
6.15385 6.92308 0
6.92308 6.92308 0
7.69231 6.92308 0
8.46154 6.92308 0
10 6.92308 0
-10 7.69231 0
-9.23077 7.69231 0
-8.46154 7.69231 0
-7.69231 7.69231 0
-6.92308 7.69231 0
-6.15385 7.69231 0
-5.38462 7.69231 0
-4.61538 7.69231 0
-3.84615 7.69231 0
-3.07692 7.69231 0
-2.30769 7.69231 0
-1.53846 7.69231 0
-0.769231 7.69231 0
5.55112e-016 7.69231 0
0.769231 7.69231 0
1.53846 7.69231 0
2.30769 7.69231 0
3.07692 7.69231 0
3.84615 7.69231 0
4.61538 7.69231 0
5.38462 7.69231 0
6.15385 7.69231 0
6.92308 7.69231 0
7.69231 7.69231 0
8.46154 7.69231 0
10 7.69231 0
-10 8.46154 0
-9.23077 8.46154 0
-8.46154 8.46154 0
-7.69231 8.46154 0
-6.92308 8.46154 0
-6.15385 8.46154 0
-5.38462 8.46154 0
-4.61538 8.46154 0
-3.84615 8.46154 0
-3.07692 8.46154 0
-2.30769 8.46154 0
-1.53846 8.46154 0
-0.769231 8.46154 0
5.55112e-016 8.46154 0
0.769231 8.46154 0
1.53846 8.46154 0
2.30769 8.46154 0
3.07692 8.46154 0
3.84615 8.46154 0
4.61538 8.46154 0
5.38462 8.46154 0
6.15385 8.46154 0
6.92308 8.46154 0
7.69231 8.46154 0
8.46154 8.46154 0
10 8.46154 0
-10 10 0
-9.23077 10 0
-8.46154 10 0
-7.69231 10 0
-6.92308 10 0
-6.15385 10 0
-5.38462 10 0
-4.61538 10 0
-3.84615 10 0
-3.07692 10 0
-2.30769 10 0
-1.53846 10 0
-0.769231 10 0
5.55112e-016 10 0
0.769231 10 0
1.53846 10 0
2.30769 10 0
3.07692 10 0
3.84615 10 0
4.61538 10 0
5.38462 10 0
6.15385 10 0
6.92308 10 0
7.69231 10 0
8.46154 10 0
10 10 0

POINT_DATA 676
SCALARS h double 1
LOOkUP_TABLE default
0.0697023
0.0850829
0.0992693
0.110377
0.117153
0.119126
0.116567
0.110265
0.10126
0.0906241
0.0793266
0.0681604
0.0577162
0.0483819
0.0403668
0.0337459
0.02852
0.0246825
0.0222873
0.0215055
0.0226612
0.0262157
0.0326608
0.0422932
0.0549279
0.0697023
0.0767564
0.0981173
0.119375
0.13765
0.150482
0.156444
0.155334
0.148005
0.135979
0.121021
0.104807
0.0887201
0.0737567
0.0605237
0.0492949
0.0401051
0.0328583
0.0274318
0.0237691
0.0219606
0.0223095
0.0253672
0.0318776
0.0425706
0.0577201
0.0767564
0.0793005
0.106469
0.135706
0.163212
0.185002
0.198055
0.20102
0.194346
0.179882
0.16022
0.138051
0.115687
0.094814
0.0764391
0.0609846
0.0484556
0.0386249
0.0311987
0.0259471
0.0228081
0.0219788
0.0239956
0.0297632
0.040417
0.0568978
0.0793005
0.0760724
0.107489
0.144188
0.181906
0.215199
0.238954
0.24981
0.246953
0.232012
0.20829
0.179718
0.149939
0.12173
0.0968079
0.0759178
0.0591002
0.0459895
0.0360746
0.0288903
0.0241513
0.0218586
0.0224081
0.0266921
0.036099
0.052202
0.0760724
0.0672785
0.100031
0.141701
0.188505
0.234212
0.271636
0.294705
0.30022
0.288548
0.263088
0.228937
0.191387
0.154787
0.122004
0.0944168
0.0722615
0.0550804
0.042126
0.0326485
0.0260774
0.0221419
0.0209853
0.0233045
0.030475
0.0444612
0.0672785
0.0546923
0.0852327
0.12769
0.179861
0.236017
0.287777
0.326348
0.345221
0.34211
0.31928
0.282332
0.238174
0.193115
0.151699
0.116394
0.0879264
0.0658892
0.0493336
0.0372052
0.0286074
0.022947
0.0200417
0.0202565
0.024692
0.0353076
0.0546923
0.0410074
0.0662898
0.104855
0.156774
0.218249
0.281377
0.335737
0.371467
0.382472
0.36824
0.333479
0.286014
0.234117
0.184438
0.141072
0.10568
0.0781777
0.0575431
0.0424531
0.0316777
0.0242815
0.0197299
0.0179958
0.0197387
0.0265431
0.0410074
0.0287584
0.0471846
0.0782459
0.124168
0.183937
0.251908
0.318075
0.370516
0.399231
0.399562
0.373466
0.328174
0.273208
0.21735
0.166763
0.124562
0.0914
0.0664323
0.0481879
0.0351491
0.0260546
0.0200307
0.0166684
0.0161481
0.0194753
0.0287584
0.0194661
0.0311312
0.0531905
0.0891757
0.140687
0.205342
0.275649
0.339979
0.385859
0.404313
0.393002
0.356569
0.304237
0.246226
0.190817
0.143004
0.104662
0.0754958
0.0541137
0.0388297
0.0281181
0.0208118
0.0161745
0.0139668
0.0146069
0.0194661
0.0134275
0.0196479
0.0333431
0.0582484
0.0975685
0.151963
0.217586
0.285439
0.343131
0.37884
0.385663
0.364009
0.320779
0.266145
0.209874
0.15891
0.11674
0.0840484
0.0598505
0.0424938
0.0303052
0.0219012
0.0162947
0.012929
0.0117534
0.0134275
0.0100817
0.0126087
0.0199074
0.0350554
0.0616179
0.102159
0.156218
0.218648
0.279606
0.327026
0.350856
0.346902
0.318094
0.272643
0.220459
0.169908
0.126168
0.0912513
0.0649391
0.0458871
0.0324494
0.0231376
0.0168027
0.0126766
0.0103926
0.0100817
0.00857525
0.00894645
0.0121187
0.0201383
0.0359915
0.0628005
0.102274
0.152845
0.208479
0.259342
0.294733
0.307118
0.295027
0.263154
0.219862
0.173805
0.131437
0.0961741
0.0688515
0.0487209
0.0343816
0.0243846
0.0175202
0.0129046
0.00998731
0.00857525
0.00817553
0.00743606
0.00832262
0.0119357
0.0202755
0.0360316
0.061683
0.0980116
0.142553
0.188965
0.228261
0.251846
0.254906
0.238167
0.20708
0.169177
0.131289
0.097921
0.0710271
0.050673
0.0359201
0.0255224
0.0183225
0.0134093
0.0101475
0.00817553
0.00841863
0.00716149
0.00693269
0.00820271
0.0120621
0.0203342
0.0352536
0.0585599
0.0901846
0.127113
0.163306
0.19126
0.204785
0.201475
0.183435
0.155948
0.125111
0.0958359
0.0709622
0.0514157
0.0368711
0.0264365
0.0191227
0.0140754
0.0106504
0.00841863
0.00907903
0.00761026
0.00689099
0.00705855
0.00860527
0.0125427
0.0204106
0.0339018
0.054026
0.0800564
0.108835
0.135125
0.153231
0.159227
0.152493
0.13568
0.113272
0.0897552
0.0683562
0.050686
0.037055
0.0270205
0.0198583
0.0148484
0.0113989
0.00907903
0.0100922
0.00857579
0.00767243
0.00737027
0.00784823
0.00958623
0.0134539
0.0206452
0.0322973
0.04879
0.0689977
0.0899932
0.107647
0.118065
0.119151
0.111356
0.0972376
0.0802042
0.0632741
0.0483883
0.0363607
0.0271983
0.0204935
0.0157171
0.0123792
0.0100922
0.0114983
0.0100442
0.00911399
0.00864159
0.00866409
0.00938116
0.0112208
0.0148695
0.02116
0.0307279
0.0434884
0.0581877
0.0724011
0.0831892
0.0881984
0.0865984
0.0793014
0.0683988
0.0562403
0.0446876
0.0348093
0.0269598
0.0210327
0.0167115
0.0136379
0.0114983
0.0134173
0.0121289
0.0112739
0.0107788
0.0106264
0.0108867
0.0117501
0.0135623
0.0168108
0.0219976
0.029367
0.0385667
0.0484458
0.0572142
0.0630109
0.0646271
0.0619661
0.0559806
0.0481783
0.0400323
0.0325932
0.0263905
0.0215387
0.0179093
0.0152779
0.0134173
0.0160443
0.0150483
0.0143652
0.0139371
0.0137367
0.0137827
0.0141527
0.0150041
0.0165848
0.0191976
0.0230861
0.0282478
0.034253
0.0402044
0.0449411
0.0474449
0.0472418
0.044562
0.0401809
0.0350678
0.0300567
0.0256748
0.0221378
0.0194395
0.0174587
0.0160443
0.0196476
0.0191237
0.01874
0.0184624
0.018276
0.0181915
0.0182438
0.0185012
0.0190776
0.0201312
0.0218267
0.0242498
0.0272977
0.0306059
0.0335856
0.0355967
0.0361912
0.0352922
0.0332042
0.0304603
0.0276092
0.0250546
0.0229987
0.0214696
0.0203903
0.0196476
0.0245503
0.0247742
0.0248925
0.0248862
0.0247626
0.0245521
0.0242921
0.0240262
0.0238125
0.0237347
0.023898
0.0243982
0.0252651
0.026407
0.0275953
0.0285212
0.0289117
0.0286501
0.0278298
0.0267098
0.0256013
0.0247517
0.0242783
0.0241644
0.0243013
0.0245503
0.0310705
0.0324796
0.0334475
0.0339337
0.0339614
0.0335996
0.0329275
0.0320171
0.0309348
0.0297545
0.0285686
0.0274831
0.0265918
0.0259394
0.0254977
0.0251757
0.0248693
0.0245287
0.0242042
0.0240409
0.0242202
0.0248786
0.0260432
0.0276091
0.0293675
0.0310705
0.0393993
0.0426759
0.0450925
0.0465003
0.0468967
0.0463933
0.0451501
0.0433282
0.0410727
0.0385182
0.0358035
0.0330777
0.0304894
0.0281631
0.0261779
0.0245649
0.0233311
0.0225002
0.0221488
0.0224123
0.0234503
0.0253779
0.0281897
0.0317091
0.0355921
0.0393993
0.0494237
0.0555723
0.060428
0.0635653
0.0648406
0.0643679
0.0624167
0.0593127
0.0553761
0.0508998
0.046153
0.0413861
0.0368259
0.0326618
0.0290316
0.0260225
0.0236913
0.022101
0.0213575
0.0216282
0.0231228
0.0260287
0.0304107
0.0361057
0.0426691
0.0494237
0.0600507
0.0702323
0.078929
0.0851162
0.0882848
0.0884128
0.0858519
0.0811594
0.0749527
0.0678216
0.0602904
0.0528043
0.0457221
0.0393101
0.0337424
0.0291165
0.0254853
0.0229033
0.0214752
0.0213915
0.0229333
0.0264221
0.0321005
0.0399563
0.0495674
0.0600507
0.0697023
0.0850829
0.0992693
0.110377
0.117153
0.119126
0.116567
0.110265
0.10126
0.0906241
0.0793266
0.0681604
0.0577162
0.0483819
0.0403668
0.0337459
0.02852
0.0246825
0.0222873
0.0215055
0.0226612
0.0262157
0.0326608
0.0422932
0.0549279
0.0697023

VECTORS u double
-150.517 148.329 0.0
-151.009 150.252 0.0
-151.568 151.791 0.0
-152.178 152.996 0.0
-152.835 153.859 0.0
-153.555 154.378 0.0
-154.358 154.551 0.0
-155.256 154.381 0.0
-156.241 153.875 0.0
-157.284 153.047 0.0
-158.33 151.914 0.0
-159.31 150.499 0.0
-160.146 148.828 0.0
-160.761 146.933 0.0
-161.089 144.86 0.0
-161.065 142.672 0.0
-160.627 140.471 0.0
-159.712 138.425 0.0
-158.273 136.809 0.0
-156.367 136.013 0.0
-154.255 136.392 0.0
-152.374 137.984 0.0
-151.082 140.413 0.0
-150.457 143.139 0.0
-150.359 145.832 0.0
-150.517 148.329 0.0
-151.202 148.408 0.0
-151.704 150.645 0.0
-152.356 152.256 0.0
-153.098 153.534 0.0
-153.902 154.467 0.0
-154.767 155.053 0.0
-155.704 155.289 0.0
-156.719 155.177 0.0
-157.802 154.725 0.0
-158.921 153.945 0.0
-160.023 152.855 0.0
-161.041 151.477 0.0
-161.9 149.835 0.0
-162.527 147.961 0.0
-162.86 145.892 0.0
-162.841 143.678 0.0
-162.41 141.395 0.0
-161.495 139.172 0.0
-160.018 137.245 0.0
-157.971 136.006 0.0
-155.566 135.934 0.0
-153.31 137.265 0.0
-151.728 139.705 0.0
-151.053 142.641 0.0
-151.072 145.592 0.0
-151.202 148.408 0.0
-151.924 147.719 0.0
-152.406 150.241 0.0
-153.084 152.09 0.0
-153.906 153.532 0.0
-154.816 154.599 0.0
-155.797 155.296 0.0
-156.85 155.629 0.0
-157.973 155.6 0.0
-159.153 155.219 0.0
-160.355 154.499 0.0
-161.526 153.46 0.0
-162.597 152.123 0.0
-163.496 150.514 0.0
-164.154 148.664 0.0
-164.513 146.605 0.0
-164.522 144.38 0.0
-164.134 142.049 0.0
-163.281 139.706 0.0
-161.871 137.533 0.0
-159.829 135.871 0.0
-157.252 135.253 0.0
-154.612 136.145 0.0
-152.616 138.461 0.0
-151.673 141.534 0.0
-151.684 144.714 0.0
-151.924 147.719 0.0
-152.289 146.36 0.0
-152.852 149.11 0.0
-153.617 151.249 0.0
-154.53 152.924 0.0
-155.539 154.182 0.0
-156.624 155.042 0.0
-157.78 155.512 0.0
-159.002 155.6 0.0
-160.274 155.316 0.0
-161.56 154.676 0.0
-162.805 153.701 0.0
-163.941 152.417 0.0
-164.895 150.851 0.0
-165.599 149.032 0.0
-165.998 146.994 0.0
-166.053 144.776 0.0
-165.726 142.426 0.0
-164.968 140.016 0.0
-163.693 137.675 0.0
-161.787 135.663 0.0
-159.212 134.472 0.0
-156.276 134.736 0.0
-153.745 136.699 0.0
-152.324 139.791 0.0
-152.053 143.162 0.0
-152.289 146.36 0.0
-152.384 144.402 0.0
-152.996 147.39 0.0
-153.871 149.803 0.0
-154.899 151.726 0.0
-156.02 153.205 0.0
-157.212 154.263 0.0
-158.469 154.908 0.0
-159.786 155.148 0.0
-161.146 154.993 0.0
-162.514 154.459 0.0
-163.835 153.571 0.0
-165.043 152.356 0.0
-166.062 150.847 0.0
-166.826 149.073 0.0
-167.282 147.071 0.0
-167.395 144.878 0.0
-167.139 142.536 0.0
-166.485 140.102 0.0
-165.37 137.666 0.0
-163.678 135.407 0.0
-161.279 133.705 0.0
-158.243 133.22 0.0
-155.188 134.546 0.0
-153.079 137.453 0.0
-152.321 140.977 0.0
-152.384 144.402 0.0
-152.319 141.896 0.0
-152.879 145.158 0.0
-153.832 147.834 0.0
-154.977 149.996 0.0
-156.221 151.698 0.0
-157.53 152.969 0.0
-158.895 153.814 0.0
-160.309 154.236 0.0
-161.756 154.241 0.0
-163.205 153.845 0.0
-164.604 153.071 0.0
-165.887 151.951 0.0
-166.98 150.518 0.0
-167.816 148.81 0.0
-168.343 146.861 0.0
-168.526 144.711 0.0
-168.348 142.4 0.0
-167.795 139.977 0.0
-166.83 137.505 0.0
-165.365 135.102 0.0
-163.245 133.021 0.0
-160.353 131.804 0.0
-156.976 132.24 0.0
-154.097 134.644 0.0
-152.612 138.209 0.0
-152.319 141.896 0.0
-152.197 138.875 0.0
-152.553 142.466 0.0
-153.514 145.424 0.0
-154.755 147.819 0.0
-156.122 149.733 0.0
-157.556 151.21 0.0
-159.037 152.261 0.0
-160.555 152.883 0.0
-162.095 153.076 0.0
-163.629 152.849 0.0
-165.108 152.222 0.0
-166.469 151.226 0.0
-167.642 149.899 0.0
-168.56 148.279 0.0
-169.169 146.406 0.0
-169.435 144.321 0.0
-169.341 142.064 0.0
-168.882 139.677 0.0
-168.041 137.213 0.0
-166.766 134.748 0.0
-164.932 132.438 0.0
-162.35 130.647 0.0
-158.988 130.108 0.0
-155.491 131.614 0.0
-153.094 134.942 0.0
-152.197 138.875 0.0
-152.15 135.378 0.0
-152.083 139.344 0.0
-152.946 142.641 0.0
-154.241 145.286 0.0
-155.719 147.403 0.0
-157.278 149.072 0.0
-158.881 150.319 0.0
-160.512 151.144 0.0
-162.154 151.539 0.0
-163.779 151.506 0.0
-165.343 151.057 0.0
-166.789 150.22 0.0
-168.048 149.03 0.0
-169.056 147.528 0.0
-169.758 145.759 0.0
-170.115 143.763 0.0
-170.11 141.581 0.0
-169.739 139.255 0.0
-168.996 136.829 0.0
-167.857 134.362 0.0
-166.244 131.949 0.0
-163.995 129.806 0.0
-160.927 128.447 0.0
-157.212 128.784 0.0
-153.924 131.384 0.0
-152.15 135.378 0.0
-152.327 131.552 0.0
-151.552 135.816 0.0
-152.16 139.529 0.0
-153.447 142.478 0.0
-155.012 144.808 0.0
-156.691 146.654 0.0
-158.42 148.079 0.0
-160.172 149.094 0.0
-161.925 149.694 0.0
-163.651 149.869 0.0
-165.309 149.623 0.0
-166.846 148.975 0.0
-168.198 147.956 0.0
-169.303 146.607 0.0
-170.104 144.971 0.0
-170.56 143.091 0.0
-170.648 141.009 0.0
-170.36 138.766 0.0
-169.695 136.405 0.0
-168.644 133.977 0.0
-167.167 131.55 0.0
-165.166 129.253 0.0
-162.463 127.385 0.0
-158.946 126.634 0.0
-155.131 127.995 0.0
-152.327 131.552 0.0
-152.812 127.846 0.0
-151.059 131.98 0.0
-151.179 136.11 0.0
-152.368 139.446 0.0
-153.999 142.031 0.0
-155.793 144.056 0.0
-157.65 145.641 0.0
-159.528 146.827 0.0
-161.4 147.618 0.0
-163.238 148 0.0
-165.001 147.97 0.0
-166.638 147.535 0.0
-168.09 146.718 0.0
-169.297 145.553 0.0
-170.202 144.082 0.0
-170.761 142.348 0.0
-170.944 140.393 0.0
-170.737 138.258 0.0
-170.136 135.988 0.0
-169.139 133.633 0.0
-167.731 131.254 0.0
-165.865 128.941 0.0
-163.432 126.863 0.0
-160.273 125.418 0.0
-156.449 125.447 0.0
-152.812 127.846 0.0
-153.449 125.098 0.0
-150.696 128.271 0.0
-150.021 132.478 0.0
-150.969 136.228 0.0
-152.641 139.134 0.0
-154.56 141.364 0.0
-156.557 143.101 0.0
-158.571 144.436 0.0
-160.574 145.395 0.0
-162.533 145.971 0.0
-164.411 146.155 0.0
-166.157 145.944 0.0
-167.717 145.348 0.0
-169.03 144.396 0.0
-170.042 143.12 0.0
-170.706 141.561 0.0
-170.984 139.761 0.0
-170.857 137.761 0.0
-170.312 135.609 0.0
-169.349 133.358 0.0
-167.966 131.073 0.0
-166.148 128.835 0.0
-163.847 126.755 0.0
-160.961 125.046 0.0
-157.406 124.187 0.0
-153.449 125.098 0.0
-153.826 123.989 0.0
-150.439 125.653 0.0
-148.74 129.088 0.0
-149.18 132.958 0.0
-150.842 136.186 0.0
-152.922 138.651 0.0
-155.098 140.543 0.0
-157.278 142.009 0.0
-159.429 143.109 0.0
-161.524 143.854 0.0
-163.528 144.235 0.0
-165.393 144.242 0.0
-167.067 143.876 0.0
-168.491 143.152 0.0
-169.612 142.094 0.0
-170.379 140.736 0.0
-170.753 139.118 0.0
-170.703 137.281 0.0
-170.212 135.276 0.0
-169.275 133.162 0.0
-167.894 131.011 0.0
-166.071 128.909 0.0
-163.796 126.955 0.0
-161.03 125.277 0.0
-157.711 124.114 0.0
-153.826 123.989 0.0
-153.649 124.407 0.0
-150.08 124.997 0.0
-147.469 127.014 0.0
-147.016 130.182 0.0
-148.464 133.407 0.0
-150.73 136.037 0.0
-153.169 138.064 0.0
-155.582 139.634 0.0
-157.925 140.842 0.0
-160.184 141.721 0.0
-162.332 142.269 0.0
-164.329 142.475 0.0
-166.125 142.329 0.0
-167.665 141.834 0.0
-168.896 141.005 0.0
-169.766 139.866 0.0
-170.232 138.452 0.0
-170.258 136.805 0.0
-169.819 134.976 0.0
-168.906 133.033 0.0
-167.519 131.056 0.0
-165.667 129.142 0.0
-163.362 127.392 0.0
-160.604 125.915 0.0
-157.386 124.842 0.0
-153.649 124.407 0.0
-152.954 125.796 0.0
-149.436 126.125 0.0
-146.355 127.163 0.0
-144.829 129.05 0.0
-145.55 131.496 0.0
-147.822 133.879 0.0
-150.591 135.865 0.0
-153.351 137.448 0.0
-155.977 138.699 0.0
-158.458 139.657 0.0
-160.787 140.326 0.0
-162.937 140.692 0.0
-164.869 140.74 0.0
-166.532 140.46 0.0
-167.876 139.856 0.0
-168.849 138.943 0.0
-169.406 137.748 0.0
-169.506 136.311 0.0
-169.121 134.686 0.0
-168.232 132.946 0.0
-166.838 131.183 0.0
-164.95 129.505 0.0
-162.592 128.024 0.0
-159.794 126.847 0.0
-156.591 126.068 0.0
-152.954 125.796 0.0
-151.92 127.736 0.0
-148.55 128.276 0.0
-145.426 129.135 0.0
-143.214 130.247 0.0
-142.784 131.567 0.0
-144.407 133.022 0.0
-147.267 134.461 0.0
-150.423 135.762 0.0
-153.449 136.881 0.0
-156.252 137.802 0.0
-158.83 138.507 0.0
-161.176 138.969 0.0
-163.269 139.161 0.0
-165.07 139.062 0.0
-166.534 138.662 0.0
-167.613 137.967 0.0
-168.261 136.994 0.0
-168.436 135.78 0.0
-168.104 134.381 0.0
-167.242 132.876 0.0
-165.844 131.368 0.0
-163.923 129.976 0.0
-161.514 128.823 0.0
-158.671 128.019 0.0
-155.471 127.639 0.0
-151.92 127.736 0.0
-150.726 130.022 0.0
-147.585 130.914 0.0
-144.679 131.961 0.0
-142.36 132.978 0.0
-141.131 133.783 0.0
-141.567 134.322 0.0
-143.724 134.744 0.0
-146.891 135.231 0.0
-150.274 135.819 0.0
-153.474 136.437 0.0
-156.385 137.001 0.0
-158.993 137.436 0.0
-161.289 137.685 0.0
-163.254 137.703 0.0
-164.853 137.464 0.0
-166.046 136.959 0.0
-166.789 136.197 0.0
-167.041 135.209 0.0
-166.763 134.051 0.0
-165.93 132.809 0.0
-164.533 131.597 0.0
-162.589 130.544 0.0
-160.148 129.781 0.0
-157.293 129.413 0.0
-154.137 129.49 0.0
-150.726 130.022 0.0
-149.522 132.556 0.0
-146.707 133.784 0.0
-144.163 135.054 0.0
-142.091 136.18 0.0
-140.709 136.968 0.0