# vtk DataFile Version 2.0
Particulate Flow Equations Solution
ASCII
DATASET STRUCTURED_GRID
DIMENSIONS 26 26 1
POINTS 676 double
-10 -10 0
-9.23077 -10 0
-8.46154 -10 0
-7.69231 -10 0
-6.92308 -10 0
-6.15385 -10 0
-5.38462 -10 0
-4.61538 -10 0
-3.84615 -10 0
-3.07692 -10 0
-2.30769 -10 0
-1.53846 -10 0
-0.769231 -10 0
5.55112e-016 -10 0
0.769231 -10 0
1.53846 -10 0
2.30769 -10 0
3.07692 -10 0
3.84615 -10 0
4.61538 -10 0
5.38462 -10 0
6.15385 -10 0
6.92308 -10 0
7.69231 -10 0
8.46154 -10 0
10 -10 0
-10 -9.23077 0
-9.23077 -9.23077 0
-8.46154 -9.23077 0
-7.69231 -9.23077 0
-6.92308 -9.23077 0
-6.15385 -9.23077 0
-5.38462 -9.23077 0
-4.61538 -9.23077 0
-3.84615 -9.23077 0
-3.07692 -9.23077 0
-2.30769 -9.23077 0
-1.53846 -9.23077 0
-0.769231 -9.23077 0
5.55112e-016 -9.23077 0
0.769231 -9.23077 0
1.53846 -9.23077 0
2.30769 -9.23077 0
3.07692 -9.23077 0
3.84615 -9.23077 0
4.61538 -9.23077 0
5.38462 -9.23077 0
6.15385 -9.23077 0
6.92308 -9.23077 0
7.69231 -9.23077 0
8.46154 -9.23077 0
10 -9.23077 0
-10 -8.46154 0
-9.23077 -8.46154 0
-8.46154 -8.46154 0
-7.69231 -8.46154 0
-6.92308 -8.46154 0
-6.15385 -8.46154 0
-5.38462 -8.46154 0
-4.61538 -8.46154 0
-3.84615 -8.46154 0
-3.07692 -8.46154 0
-2.30769 -8.46154 0
-1.53846 -8.46154 0
-0.769231 -8.46154 0
5.55112e-016 -8.46154 0
0.769231 -8.46154 0
1.53846 -8.46154 0
2.30769 -8.46154 0
3.07692 -8.46154 0
3.84615 -8.46154 0
4.61538 -8.46154 0
5.38462 -8.46154 0
6.15385 -8.46154 0
6.92308 -8.46154 0
7.69231 -8.46154 0
8.46154 -8.46154 0
10 -8.46154 0
-10 -7.69231 0
-9.23077 -7.69231 0
-8.46154 -7.69231 0
-7.69231 -7.69231 0
-6.92308 -7.69231 0
-6.15385 -7.69231 0
-5.38462 -7.69231 0
-4.61538 -7.69231 0
-3.84615 -7.69231 0
-3.07692 -7.69231 0
-2.30769 -7.69231 0
-1.53846 -7.69231 0
-0.769231 -7.69231 0
5.55112e-016 -7.69231 0
0.769231 -7.69231 0
1.53846 -7.69231 0
2.30769 -7.69231 0
3.07692 -7.69231 0
3.84615 -7.69231 0
4.61538 -7.69231 0
5.38462 -7.69231 0
6.15385 -7.69231 0
6.92308 -7.69231 0
7.69231 -7.69231 0
8.46154 -7.69231 0
10 -7.69231 0
-10 -6.92308 0
-9.23077 -6.92308 0
-8.46154 -6.92308 0
-7.69231 -6.92308 0
-6.92308 -6.92308 0
-6.15385 -6.92308 0
-5.38462 -6.92308 0
-4.61538 -6.92308 0
-3.84615 -6.92308 0
-3.07692 -6.92308 0
-2.30769 -6.92308 0
-1.53846 -6.92308 0
-0.769231 -6.92308 0
5.55112e-016 -6.92308 0
0.769231 -6.92308 0
1.53846 -6.92308 0
2.30769 -6.92308 0
3.07692 -6.92308 0
3.84615 -6.92308 0
4.61538 -6.92308 0
5.38462 -6.92308 0
6.15385 -6.92308 0
6.92308 -6.92308 0
7.69231 -6.92308 0
8.46154 -6.92308 0
10 -6.92308 0
-10 -6.15385 0
-9.23077 -6.15385 0
-8.46154 -6.15385 0
-7.69231 -6.15385 0
-6.92308 -6.15385 0
-6.15385 -6.15385 0
-5.38462 -6.15385 0
-4.61538 -6.15385 0
-3.84615 -6.15385 0
-3.07692 -6.15385 0
-2.30769 -6.15385 0
-1.53846 -6.15385 0
-0.769231 -6.15385 0
5.55112e-016 -6.15385 0
0.769231 -6.15385 0
1.53846 -6.15385 0
2.30769 -6.15385 0
3.07692 -6.15385 0
3.84615 -6.15385 0
4.61538 -6.15385 0
5.38462 -6.15385 0
6.15385 -6.15385 0
6.92308 -6.15385 0
7.69231 -6.15385 0
8.46154 -6.15385 0
10 -6.15385 0
-10 -5.38462 0
-9.23077 -5.38462 0
-8.46154 -5.38462 0
-7.69231 -5.38462 0
-6.92308 -5.38462 0
-6.15385 -5.38462 0
-5.38462 -5.38462 0
-4.61538 -5.38462 0
-3.84615 -5.38462 0
-3.07692 -5.38462 0
-2.30769 -5.38462 0
-1.53846 -5.38462 0
-0.769231 -5.38462 0
5.55112e-016 -5.38462 0
0.769231 -5.38462 0
1.53846 -5.38462 0
2.30769 -5.38462 0
3.07692 -5.38462 0
3.84615 -5.38462 0
4.61538 -5.38462 0
5.38462 -5.38462 0
6.15385 -5.38462 0
6.92308 -5.38462 0
7.69231 -5.38462 0
8.46154 -5.38462 0
10 -5.38462 0
-10 -4.61538 0
-9.23077 -4.61538 0
-8.46154 -4.61538 0
-7.69231 -4.61538 0
-6.92308 -4.61538 0
-6.15385 -4.61538 0
-5.38462 -4.61538 0
-4.61538 -4.61538 0
-3.84615 -4.61538 0
-3.07692 -4.61538 0
-2.30769 -4.61538 0
-1.53846 -4.61538 0
-0.769231 -4.61538 0
5.55112e-016 -4.61538 0
0.769231 -4.61538 0
1.53846 -4.61538 0
2.30769 -4.61538 0
3.07692 -4.61538 0
3.84615 -4.61538 0
4.61538 -4.61538 0
5.38462 -4.61538 0
6.15385 -4.61538 0
6.92308 -4.61538 0
7.69231 -4.61538 0
8.46154 -4.61538 0
10 -4.61538 0
-10 -3.84615 0
-9.23077 -3.84615 0
-8.46154 -3.84615 0
-7.69231 -3.84615 0
-6.92308 -3.84615 0
-6.15385 -3.84615 0
-5.38462 -3.84615 0
-4.61538 -3.84615 0
-3.84615 -3.84615 0
-3.07692 -3.84615 0
-2.30769 -3.84615 0
-1.53846 -3.84615 0
-0.769231 -3.84615 0
5.55112e-016 -3.84615 0
0.769231 -3.84615 0
1.53846 -3.84615 0
2.30769 -3.84615 0
3.07692 -3.84615 0
3.84615 -3.84615 0
4.61538 -3.84615 0
5.38462 -3.84615 0
6.15385 -3.84615 0
6.92308 -3.84615 0
7.69231 -3.84615 0
8.46154 -3.84615 0
10 -3.84615 0
-10 -3.07692 0
-9.23077 -3.07692 0
-8.46154 -3.07692 0
-7.69231 -3.07692 0
-6.92308 -3.07692 0
-6.15385 -3.07692 0
-5.38462 -3.07692 0
-4.61538 -3.07692 0
-3.84615 -3.07692 0
-3.07692 -3.07692 0
-2.30769 -3.07692 0
-1.53846 -3.07692 0
-0.769231 -3.07692 0
5.55112e-016 -3.07692 0
0.769231 -3.07692 0
1.53846 -3.07692 0
2.30769 -3.07692 0
3.07692 -3.07692 0
3.84615 -3.07692 0
4.61538 -3.07692 0
5.38462 -3.07692 0
6.15385 -3.07692 0
6.92308 -3.07692 0
7.69231 -3.07692 0
8.46154 -3.07692 0
10 -3.07692 0
-10 -2.30769 0
-9.23077 -2.30769 0
-8.46154 -2.30769 0
-7.69231 -2.30769 0
-6.92308 -2.30769 0
-6.15385 -2.30769 0
-5.38462 -2.30769 0
-4.61538 -2.30769 0
-3.84615 -2.30769 0
-3.07692 -2.30769 0
-2.30769 -2.30769 0
-1.53846 -2.30769 0
-0.769231 -2.30769 0
5.55112e-016 -2.30769 0
0.769231 -2.30769 0
1.53846 -2.30769 0
2.30769 -2.30769 0
3.07692 -2.30769 0
3.84615 -2.30769 0
4.61538 -2.30769 0
5.38462 -2.30769 0
6.15385 -2.30769 0
6.92308 -2.30769 0
7.69231 -2.30769 0
8.46154 -2.30769 0
10 -2.30769 0
-10 -1.53846 0
-9.23077 -1.53846 0
-8.46154 -1.53846 0
-7.69231 -1.53846 0
-6.92308 -1.53846 0
-6.15385 -1.53846 0
-5.38462 -1.53846 0
-4.61538 -1.53846 0
-3.84615 -1.53846 0
-3.07692 -1.53846 0
-2.30769 -1.53846 0
-1.53846 -1.53846 0
-0.769231 -1.53846 0
5.55112e-016 -1.53846 0
0.769231 -1.53846 0
1.53846 -1.53846 0
2.30769 -1.53846 0
3.07692 -1.53846 0
3.84615 -1.53846 0
4.61538 -1.53846 0
5.38462 -1.53846 0
6.15385 -1.53846 0
6.92308 -1.53846 0
7.69231 -1.53846 0
8.46154 -1.53846 0
10 -1.53846 0
-10 -0.769231 0
-9.23077 -0.769231 0
-8.46154 -0.769231 0
-7.69231 -0.769231 0
-6.92308 -0.769231 0
-6.15385 -0.769231 0
-5.38462 -0.769231 0
-4.61538 -0.769231 0
-3.84615 -0.769231 0
-3.07692 -0.769231 0
-2.30769 -0.769231 0
-1.53846 -0.769231 0
-0.769231 -0.769231 0
5.55112e-016 -0.769231 0
0.769231 -0.769231 0
1.53846 -0.769231 0
2.30769 -0.769231 0
3.07692 -0.769231 0
3.84615 -0.769231 0
4.61538 -0.769231 0
5.38462 -0.769231 0
6.15385 -0.769231 0
6.92308 -0.769231 0
7.69231 -0.769231 0
8.46154 -0.769231 0
10 -0.769231 0
-10 5.55112e-016 0
-9.23077 5.55112e-016 0
-8.46154 5.55112e-016 0
-7.69231 5.55112e-016 0
-6.92308 5.55112e-016 0
-6.15385 5.55112e-016 0
-5.38462 5.55112e-016 0
-4.61538 5.55112e-016 0
-3.84615 5.55112e-016 0
-3.07692 5.55112e-016 0
-2.30769 5.55112e-016 0
-1.53846 5.55112e-016 0
-0.769231 5.55112e-016 0
5.55112e-016 5.55112e-016 0
0.769231 5.55112e-016 0
1.53846 5.55112e-016 0
2.30769 5.55112e-016 0
3.07692 5.55112e-016 0
3.84615 5.55112e-016 0
4.61538 5.55112e-016 0
5.38462 5.55112e-016 0
6.15385 5.55112e-016 0
6.92308 5.55112e-016 0
7.69231 5.55112e-016 0
8.46154 5.55112e-016 0
10 5.55112e-016 0
-10 0.769231 0
-9.23077 0.769231 0
-8.46154 0.769231 0
-7.69231 0.769231 0
-6.92308 0.769231 0
-6.15385 0.769231 0
-5.38462 0.769231 0
-4.61538 0.769231 0
-3.84615 0.769231 0
-3.07692 0.769231 0
-2.30769 0.769231 0
-1.53846 0.769231 0
-0.769231 0.769231 0
5.55112e-016 0.769231 0
0.769231 0.769231 0
1.53846 0.769231 0
2.30769 0.769231 0
3.07692 0.769231 0
3.84615 0.769231 0
4.61538 0.769231 0
5.38462 0.769231 0
6.15385 0.769231 0
6.92308 0.769231 0
7.69231 0.769231 0
8.46154 0.769231 0
10 0.769231 0
-10 1.53846 0
-9.23077 1.53846 0
-8.46154 1.53846 0
-7.69231 1.53846 0
-6.92308 1.53846 0
-6.15385 1.53846 0
-5.38462 1.53846 0
-4.61538 1.53846 0
-3.84615 1.53846 0
-3.07692 1.53846 0
-2.30769 1.53846 0
-1.53846 1.53846 0
-0.769231 1.53846 0
5.55112e-016 1.53846 0
0.769231 1.53846 0
1.53846 1.53846 0
2.30769 1.53846 0
3.07692 1.53846 0
3.84615 1.53846 0
4.61538 1.53846 0
5.38462 1.53846 0
6.15385 1.53846 0
6.92308 1.53846 0
7.69231 1.53846 0
8.46154 1.53846 0
10 1.53846 0
-10 2.30769 0
-9.23077 2.30769 0
-8.46154 2.30769 0
-7.69231 2.30769 0
-6.92308 2.30769 0
-6.15385 2.30769 0
-5.38462 2.30769 0
-4.61538 2.30769 0
-3.84615 2.30769 0
-3.07692 2.30769 0
-2.30769 2.30769 0
-1.53846 2.30769 0
-0.769231 2.30769 0
5.55112e-016 2.30769 0
0.769231 2.30769 0
1.53846 2.30769 0
2.30769 2.30769 0
3.07692 2.30769 0
3.84615 2.30769 0
4.61538 2.30769 0
5.38462 2.30769 0
6.15385 2.30769 0
6.92308 2.30769 0
7.69231 2.30769 0
8.46154 2.30769 0
10 2.30769 0
-10 3.07692 0
-9.23077 3.07692 0
-8.46154 3.07692 0
-7.69231 3.07692 0
-6.92308 3.07692 0
-6.15385 3.07692 0
-5.38462 3.07692 0
-4.61538 3.07692 0
-3.84615 3.07692 0
-3.07692 3.07692 0
-2.30769 3.07692 0
-1.53846 3.07692 0
-0.769231 3.07692 0
5.55112e-016 3.07692 0
0.769231 3.07692 0
1.53846 3.07692 0
2.30769 3.07692 0
3.07692 3.07692 0
3.84615 3.07692 0
4.61538 3.07692 0
5.38462 3.07692 0
6.15385 3.07692 0
6.92308 3.07692 0
7.69231 3.07692 0
8.46154 3.07692 0
10 3.07692 0
-10 3.84615 0
-9.23077 3.84615 0
-8.46154 3.84615 0
-7.69231 3.84615 0
-6.92308 3.84615 0
-6.15385 3.84615 0
-5.38462 3.84615 0
-4.61538 3.84615 0
-3.84615 3.84615 0
-3.07692 3.84615 0
-2.30769 3.84615 0
-1.53846 3.84615 0
-0.769231 3.84615 0
5.55112e-016 3.84615 0
0.769231 3.84615 0
1.53846 3.84615 0
2.30769 3.84615 0
3.07692 3.84615 0
3.84615 3.84615 0
4.61538 3.84615 0
5.38462 3.84615 0
6.15385 3.84615 0
6.92308 3.84615 0
7.69231 3.84615 0
8.46154 3.84615 0
10 3.84615 0
-10 4.61538 0
-9.23077 4.61538 0
-8.46154 4.61538 0
-7.69231 4.61538 0
-6.92308 4.61538 0
-6.15385 4.61538 0
-5.38462 4.61538 0
-4.61538 4.61538 0
-3.84615 4.61538 0
-3.07692 4.61538 0
-2.30769 4.61538 0
-1.53846 4.61538 0
-0.769231 4.61538 0
5.55112e-016 4.61538 0
0.769231 4.61538 0
1.53846 4.61538 0
2.30769 4.61538 0
3.07692 4.61538 0
3.84615 4.61538 0
4.61538 4.61538 0
5.38462 4.61538 0
6.15385 4.61538 0
6.92308 4.61538 0
7.69231 4.61538 0
8.46154 4.61538 0
10 4.61538 0
-10 5.38462 0
-9.23077 5.38462 0
-8.46154 5.38462 0
-7.69231 5.38462 0
-6.92308 5.38462 0
-6.15385 5.38462 0
-5.38462 5.38462 0
-4.61538 5.38462 0
-3.84615 5.38462 0
-3.07692 5.38462 0
-2.30769 5.38462 0
-1.53846 5.38462 0
-0.769231 5.38462 0
5.55112e-016 5.38462 0
0.769231 5.38462 0
1.53846 5.38462 0
2.30769 5.38462 0
3.07692 5.38462 0
3.84615 5.38462 0
4.61538 5.38462 0
5.38462 5.38462 0
6.15385 5.38462 0
6.92308 5.38462 0
7.69231 5.38462 0
8.46154 5.38462 0
10 5.38462 0
-10 6.15385 0
-9.23077 6.15385 0
-8.46154 6.15385 0
-7.69231 6.15385 0
-6.92308 6.15385 0
-6.15385 6.15385 0
-5.38462 6.15385 0
-4.61538 6.15385 0
-3.84615 6.15385 0
-3.07692 6.15385 0
-2.30769 6.15385 0
-1.53846 6.15385 0
-0.769231 6.15385 0
5.55112e-016 6.15385 0
0.769231 6.15385 0
1.53846 6.15385 0
2.30769 6.15385 0
3.07692 6.15385 0
3.84615 6.15385 0
4.61538 6.15385 0
5.38462 6.15385 0
6.15385 6.15385 0
6.92308 6.15385 0
7.69231 6.15385 0
8.46154 6.15385 0
10 6.15385 0
-10 6.92308 0
-9.23077 6.92308 0
-8.46154 6.92308 0
-7.69231 6.92308 0
-6.92308 6.92308 0
-6.15385 6.92308 0
-5.38462 6.92308 0
-4.61538 6.92308 0
-3.84615 6.92308 0
-3.07692 6.92308 0
-2.30769 6.92308 0
-1.53846 6.92308 0
-0.769231 6.92308 0
5.55112e-016 6.92308 0
0.769231 6.92308 0
1.53846 6.92308 0
2.30769 6.92308 0
3.07692 6.92308 0
3.84615 6.92308 0
4.61538 6.92308 0
5.38462 6.92308 0
6.15385 6.92308 0
6.92308 6.92308 0
7.69231 6.92308 0
8.46154 6.92308 0
10 6.92308 0
-10 7.69231 0
-9.23077 7.69231 0
-8.46154 7.69231 0
-7.69231 7.69231 0
-6.92308 7.69231 0
-6.15385 7.69231 0
-5.38462 7.69231 0
-4.61538 7.69231 0
-3.84615 7.69231 0
-3.07692 7.69231 0
-2.30769 7.69231 0
-1.53846 7.69231 0
-0.769231 7.69231 0
5.55112e-016 7.69231 0
0.769231 7.69231 0
1.53846 7.69231 0
2.30769 7.69231 0
3.07692 7.69231 0
3.84615 7.69231 0
4.61538 7.69231 0
5.38462 7.69231 0
6.15385 7.69231 0
6.92308 7.69231 0
7.69231 7.69231 0
8.46154 7.69231 0
10 7.69231 0
-10 8.46154 0
-9.23077 8.46154 0
-8.46154 8.46154 0
-7.69231 8.46154 0
-6.92308 8.46154 0
-6.15385 8.46154 0
-5.38462 8.46154 0
-4.61538 8.46154 0
-3.84615 8.46154 0
-3.07692 8.46154 0
-2.30769 8.46154 0
-1.53846 8.46154 0
-0.769231 8.46154 0
5.55112e-016 8.46154 0
0.769231 8.46154 0
1.53846 8.46154 0
2.30769 8.46154 0
3.07692 8.46154 0
3.84615 8.46154 0
4.61538 8.46154 0
5.38462 8.46154 0
6.15385 8.46154 0
6.92308 8.46154 0
7.69231 8.46154 0
8.46154 8.46154 0
10 8.46154 0
-10 10 0
-9.23077 10 0
-8.46154 10 0
-7.69231 10 0
-6.92308 10 0
-6.15385 10 0
-5.38462 10 0
-4.61538 10 0
-3.84615 10 0
-3.07692 10 0
-2.30769 10 0
-1.53846 10 0
-0.769231 10 0
5.55112e-016 10 0
0.769231 10 0
1.53846 10 0
2.30769 10 0
3.07692 10 0
3.84615 10 0
4.61538 10 0
5.38462 10 0
6.15385 10 0
6.92308 10 0
7.69231 10 0
8.46154 10 0
10 10 0

POINT_DATA 676
SCALARS h double 1
LOOkUP_TABLE default
0.00860064
0.000986033
0.0153163
0.0774942
0.229453
0.35501
0.430614
0.456084
0.41115
0.314423
0.220222
0.182571
0.256044
0.517185
1.05136
1.87195
2.79464
3.41674
3.36844
2.6652
1.70481
0.895185
0.391916
0.143668
0.0427497
0.00860064
0.00579819
-0.000438905
0.0100737
0.0503226
0.159237
0.246707
0.287898
0.298969
0.268709
0.203946
0.135407
0.0929823
0.102746
0.208974
0.476847
0.953444
1.57776
2.10448
2.22004
1.83677
1.19735
0.624107
0.265207
0.0934532
0.0271997
0.00579819
0.002596
-2.55889e-005
0.00554704
0.0275139
0.0893123
0.13477
0.140852
0.134403
0.117639
0.0886492
0.0567202
0.0333717
0.0267971
0.0517769
0.134466
0.302789
0.556572
0.81408
0.925624
0.807454
0.54132
0.283184
0.118542
0.0409164
0.0118139
0.002596
0.00105247
0.000114918
0.00262139
0.0131219
0.0439089
0.0645116
0.0550697
0.0411683
0.0339647
0.0267516
0.0181714
0.0117255
0.00990331
0.0138927
0.0293946
0.0681429
0.135094
0.214176
0.262849
0.244602
0.172227
0.0933104
0.0401901
0.0143458
0.00435203
0.00105247
0.000397299
8.92946e-005
0.00110854
0.00572236
0.0197933
0.0291526
0.0187983
0.00663902
0.0052549
0.00526268
0.00583211
0.0075172
0.0105471
0.0135044
0.0150699
0.0182448
0.0283191
0.04399
0.0562641
0.0557724
0.0421169
0.024539
0.0114264
0.00443714
0.00146662
0.000397299
0.000230418
0.00012573
0.000391132
0.00225787
0.00808391
0.0124166
0.00598185
0.00059559
0.000707283
0.00135927
0.00374225
0.00770343
0.0127833
0.0171333
0.0181068
0.0152552
0.0114604
0.0101496
0.010814
0.0105374
0.00840546
0.00537928
0.00282911
0.00128541
0.000534539
0.000230418
0.00031457
0.000374481
0.000263214
0.000732355
0.00271642
0.00446923
0.00157904
0.000372213
0.00039186
0.000760254
0.00195763
0.00466793
0.00879302
0.0132582
0.0156975
0.0143391
0.00991762
0.00522101
0.00262324
0.00186965
0.00136772
0.000895384
0.00054537
0.000411342
0.000369265
0.00031457
7.30969e-005
0.000283122
0.000809383
0.000639389
0.000715226
0.00110513
0.000286844
8.51292e-005
0.000111147
0.000235243
0.000764002
0.00207862
0.00445008
0.0075687
0.0102877
0.0110316
0.00909594
0.00547266
0.00213757
0.000543675
0.000231844
0.00011938
5.84612e-005
0.000104628
6.53841e-005
7.30969e-005
0.00337448
0.00600017
0.00222895
0.000589533
0.000199822
0.000140217
4.01028e-005
2.56057e-005
5.11823e-005
0.000218635
0.000766843
0.00202433
0.00418644
0.00698192
0.00956566
0.0107668
0.0097809
0.00682449
0.00313535
0.000399365
8.55626e-005
0.0002194
0.000492677
0.00149327
0.00113176
0.00337448
0.00891677
0.0136778
0.00278707
0.000432799
0.000212277
0.000198148
0.00013622
0.000119407
0.000178682
0.000395427
0.000974456
0.00220366
0.00418086
0.00650186
0.00828734
0.00860557
0.00708209
0.00429982
0.00160242
0.000381001
0.00030581
0.000791314
0.00160411
0.00544133
0.00439926
0.00891677
0.0128065
0.0182965
0.00315944
0.0003674
0.000605959
0.000589903
0.000413408
0.000378637
0.000528475
0.000891423
0.00154804
0.00261807
0.00405926
0.0054256
0.00597669
0.00517262
0.00316611
0.000945735
0.000365033
0.000176404
0.00034875
0.000620332
0.00321735
0.011189
0.00885206
0.0128065
0.013517
0.0187083
0.00277089
0.000784028
0.00144075
0.00130113
0.000930987
0.000912167
0.00128168
0.00196348
0.00282807
0.00372084
0.00445637
0.00474518
0.00425472
0.00293236
0.0012516
0.00010077
8.12646e-006
3.74112e-005
0.000127307
0.000489392
0.00501656
0.0166118
0.0126686
0.013517
0.0120554
0.0166712
0.00259059
0.0020244
0.00286409
0.00237644
0.00172948
0.00180828
0.00260416
0.00386037
0.00511839
0.00583292
0.00570526
0.00481463
0.00341982
0.00186544
0.000601475
8.34768e-006
8.56922e-006
6.02581e-006
0.000103837
0.000730156
0.00629056
0.0196749
0.0144912
0.0120554
0.0100033
0.0144556
0.004143
0.00445243
0.00502604
0.00380107
0.00276791
0.00305472
0.0045371
0.00669563
0.00859166
0.0091255
0.0079102
0.00561416
0.00323906
0.00142367
0.000380094
1.56507e-005
5.4139e-006
3.05518e-006
0.000111096
0.000912678
0.00657617
0.0195873
0.0140229
0.0100033
0.0084017
0.013533
0.00765897
0.00850744
0.00801595
0.00548957
0.00391494
0.00450484
0.00693133
0.0103515
0.0131898
0.0135876
0.0110598
0.00706955
0.00352344
0.00131271
0.000315297
3.30494e-005
4.42308e-006
8.23607e-007
7.84643e-005
0.000787467
0.00591576
0.0169799
0.0119366
0.0084017
0.00779254
0.0147513
0.0137202
0.0144742
0.0117634
0.0072744
0.00499917
0.0059793
0.0096078
0.0146544
0.0187262
0.0190594
0.0150581
0.00910759
0.00417226
0.00140907
0.00032613
4.66251e-005
3.48232e-006
3.23563e-006
6.5386e-005
0.00062144
0.00491077
0.0133623
0.00937023
0.00779254
0.00921554
0.0202671
0.0237504
0.0232534
0.0165767
0.0090671
0.00577723
0.00715379
0.0122412
0.019451
0.0251654
0.0253988
0.0197595
0.0116402
0.0051213
0.00165647
0.000385174
6.44181e-005
5.46299e-006
2.88832e-006
6.40631e-005
0.000529168
0.00409377
0.0105497
0.00758595
0.00921554
0.0119616
0.0298073
0.0395524
0.0373938
0.0243318
0.0114952
0.00593314
0.00686525
0.0128306
0.0232713
0.0319807
0.0323349
0.0248766
0.0144756
0.0062654
0.00199995
0.000481913
5.9075e-005
1.12031e-005
1.02429e-005
2.80459e-005
0.000206323
0.00255783
0.00791519
0.00616779
0.0119616
0.0117332
0.0356652
0.0581872
0.0587331
0.0381841
0.0163546
0.00591365
0.00469332
0.00953304
0.0217107
0.0354567
0.0382981
0.0295376
0.0171158
0.00739266
0.00237437
0.000680857
0.000204169
5.82331e-005
7.95106e-006
7.71132e-005
0.000101888
0.000875177
0.00372242
0.003593
0.0117332
0.00787927
0.0310964
0.0682505
0.081701
0.0581384
0.0248654
0.00630786
0.000404504
0.00214424
0.0106049
0.0317371
0.039907
0.0317575
0.0184746
0.00777442
0.00201413
1.32331e-005
0.000299044
0.000679457
0.000290743
-0.000305458
6.37756e-006
0.000307118
0.000825029
0.0012267
0.00787927
0.00423111
0.0202574
0.0595005
0.0928796
0.0777372
0.0372558
0.0115643
0.00338912
0.00177935
0.00491726
0.0233409
0.0352692
0.029887
0.0175244
0.00692211
0.00232211
0.00330754
0.00445795
0.00462355
0.00417249
0.00270553
0.00140748
0.000473758
-0.000239832
0.000585265
0.00423111
0.00196863
0.0110359
0.0408465
0.0886361
0.0955167
0.0627998
0.0377036
0.0267208
0.0207592
0.0182952
0.0251874
0.0344715
0.0356957
0.0354025
0.0405838
0.0526256
0.0670502
0.0750179
0.0705336
0.0549439
0.0354533
0.0190861
0.00852425
0.00290835
0.000759615
0.00196863
0.000613932
0.00573262
0.0273626
0.0847343
0.132802
0.133838
0.12418
0.113112
0.0948407
0.0737666
0.0627394
0.0697622
0.0996458
0.161289
0.255964
0.372612
0.478766
0.524914
0.480369
0.364682
0.231622
0.124979
0.0577111
0.0221388
0.00614665
0.000613932
0.00482223
0.00386563
0.0225883
0.0946215
0.208242
0.275565
0.307945
0.30834
0.268074
0.205291
0.158997
0.168708
0.27613
0.515485
0.890316
1.35448
1.77514
1.96027
1.7965
1.36305
0.865308
0.467764
0.218008
0.0864322
0.0268158
0.00482223
0.0113883
0.0046485
0.0199569
0.0983574
0.260947
0.38775
0.464757
0.484943
0.430895
0.329937
0.245066
0.243282
0.399828
0.789823
1.45314
2.33027
3.17274
3.59492
3.34728
2.55837
1.6227
0.869532
0.3995
0.156549
0.0493225
0.0113883
0.00860064
0.000986033
0.0153163
0.0774942
0.229453
0.35501
0.430614
0.456084
0.41115
0.314423
0.220222
0.182571
0.256044
0.517185
1.05136
1.87195
2.79464
3.41674
3.36844
2.6652
1.70481
0.895185
0.391916
0.143668
0.0427497
0.00860064

VECTORS u double
-75.0765 21.4683 0.0
126.851 84.6078 0.0
14.0994 56.4594 0.0
-6.76248 54.1221 0.0
-23.8976 52.4388 0.0
-33.0587 49.5175 0.0
-37.7498 46.788 0.0
-40.2377 45.3625 0.0
-41.8343 44.7251 0.0
-42.5875 44.08 0.0
-42.7468 42.2365 0.0
-45.6363 36.3159 0.0
-54.5154 29.0235 0.0
-61.5707 28.2767 0.0
-65.4777 30.8338 0.0
-68.9065 33.6859 0.0
-73.0365 36.0231 0.0
-78.1053 37.4971 0.0
-83.7295 37.8724 0.0
-89.0467 37.0512 0.0
-93.0885 35.089 0.0
-95.1892 32.1723 0.0
-95.1152 28.6143 0.0
-92.844 24.9056 0.0
-87.7461 21.8699 0.0
-75.0765 21.4683 0.0
-78.151 15.7964 0.0
-239.326 -40.045 0.0
17.8645 56.3914 0.0
-2.59534 52.687 0.0
-20.655 49.3961 0.0
-30.4004 45.0251 0.0
-35.474 41.0842 0.0
-38.3694 39.0462 0.0
-40.4093 38.2055 0.0
-41.5446 37.4715 0.0
-41.7597 35.8869 0.0
-43.3843 31.088 0.0
-52.1825 23.2737 0.0
-60.5449 21.9703 0.0
-64.4435 24.4387 0.0
-67.5588 27.1633 0.0
-71.3584 29.4298 0.0
-76.1365 30.8816 0.0
-81.5727 31.2249 0.0
-86.8711 30.3154 0.0
-91.1043 28.2114 0.0
-93.6153 25.1444 0.0
-94.1616 21.4853 0.0
-92.7505 17.7977 0.0
-88.9987 15.0494 0.0
-78.151 15.7964 0.0
-77.6557 13.7181 0.0
-1231.76 -414.116 0.0
22.1531 56.7631 0.0
1.65708 52.354 0.0
-15.893 48.2853 0.0
-26.5806 42.578 0.0
-32.3547 36.9128 0.0
-35.935 33.7365 0.0
-38.5693 32.718 0.0
-40.0465 32.0397 0.0
-40.0325 30.5485 0.0
-39.169 26.4578 0.0
-43.8877 18.6355 0.0
-55.7404 16.9932 0.0
-62.419 19.3792 0.0
-66.2591 21.8112 0.0
-70.0512 23.8246 0.0
-74.6247 25.165 0.0
-79.8474 25.5602 0.0
-85.0265 24.8367 0.0
-89.2927 23.0118 0.0
-92.0049 20.3018 0.0
-92.9103 17.1 0.0
-91.972 14.0219 0.0
-88.6084 12.0638 0.0
-77.6557 13.7181 0.0
-76.2178 14.2706 0.0
48.2733 61.5336 0.0
26.0313 58.11 0.0
6.25352 53.5806 0.0
-9.97682 49.466 0.0
-21.4736 42.8519 0.0
-27.7123 34.8557 0.0
-31.6693 28.6281 0.0
-34.4427 26.7405 0.0
-36.0399 26.1858 0.0
-34.9066 24.4899 0.0
-29.2416 19.7022 0.0
-22.8407 13.898 0.0
-28.8793 13.2395 0.0
-47.4746 15.4869 0.0
-60.9152 17.8938 0.0
-67.8411 19.7546 0.0
-73.0362 20.9927 0.0
-78.2369 21.4613 0.0
-83.2998 21.0272 0.0
-87.5117 19.6913 0.0
-90.2635 17.6429 0.0
-91.2965 15.2597 0.0
-90.5689 13.1004 0.0
-87.4314 11.9743 0.0
-76.2178 14.2706 0.0
-73.4569 14.0827 0.0
-6.60437 35.3779 0.0
29.2771 58.2859 0.0
10.8364 54.994 0.0
-3.79743 51.4371 0.0
-15.7233 44.6212 0.0
-21.9698 34.5064 0.0
-24.3533 20.0629 0.0
-22.1635 13.8221 0.0
-23.1258 12.9264 0.0
-21.8541 13.3228 0.0
-17.3843 12.1084 0.0
-14.9803 11.8379 0.0
-14.5173 12.5335 0.0
-17.226 13.4922 0.0
-31.6636 14.8152 0.0
-53.8789 16.4036 0.0
-67.9842 17.6674 0.0
-75.8261 18.298 0.0
-81.3727 18.182 0.0
-85.5615 17.3507 0.0
-88.1851 15.9875 0.0
-89.0478 14.4132 0.0
-88.1189 13.0223 0.0
-84.7888 12.2969 0.0
-73.4569 14.0827 0.0
-36.2255 7.00545 0.0
-15.936 4.62257 0.0
27.9119 41.7366 0.0
14.9988 52.5746 0.0
1.79219 52.0306 0.0
-9.91314 46.1416 0.0
-15.7283 34.2569 0.0
-1.39601 7.4982 0.0
5.17994 -2.02824 0.0
-5.70623 -1.64583 0.0
-13.946 4.92969 0.0
-14.9636 7.78092 0.0
-14.6636 9.28543 0.0
-13.9517 10.517 0.0
-12.8775 11.6215 0.0
-12.4406 12.5904 0.0
-18.6179 13.4915 0.0
-41.496 14.4802 0.0
-64.8366 15.4307 0.0
-76.8958 15.8053 0.0
-82.0418 15.4281 0.0
-83.6799 14.4893 0.0
-82.0498 13.1988 0.0
-75.7671 11.6023 0.0
-62.2672 9.61132 0.0
-36.2255 7.00545 0.0
7.64592 -1.40567 0.0
13.7097 -2.18698 0.0
18.7656 -0.0820387 0.0
18.8972 35.3547 0.0
7.39214 48.0327 0.0
-3.91323 45.4054 0.0
-6.00415 30.5207 0.0
21.0718 11.1238 0.0
29.3359 -2.26367 0.0
8.11201 -3.45124 0.0
-11.3138 0.551118 0.0
-14.7803 3.64166 0.0
-14.6318 5.45475 0.0
-13.9031 7.0089 0.0
-12.6741 8.43277 0.0
-11.0661 9.65819 0.0
-9.76187 10.6046 0.0
-12.3644 11.184 0.0
-32.0553 11.847 0.0
-59.8799 13.1451 0.0
-73.3634 13.3613 0.0
-72.3839 12.0223 0.0
-58.5101 8.54404 0.0
-31.7195 2.79092 0.0
-20.5859 0.47286 0.0
7.64592 -1.40567 0.0
18.7135 -8.50486 0.0
29.162 -7.62167 0.0
16.0203 1.75809 0.0
11.7136 6.99194 0.0
11.5351 30.7749 0.0
2.06509 40.1187 0.0
6.422 24.1502 0.0
28.684 2.80439 0.0
24.6229 -7.31746 0.0
-0.428177 -4.25235 0.0
-15.4805 2.33761 0.0
-15.9367 4.50417 0.0
-15.3007 5.66483 0.0
-14.3373 6.63906 0.0
-12.9438 7.55494 0.0
-11.1882 8.3267 0.0
-9.37328 8.76724 0.0
-8.10134 8.56365 0.0
-8.96194 7.36314 0.0
-22.0676 7.66246 0.0
-45.611 8.97671 0.0
-55.8982 8.18295 0.0
-40.2427 -5.30061 0.0
-12.1536 -10.261 0.0
-20.0677 -10.2976 0.0
18.7135 -8.50486 0.0
8.8537 8.71084 0.0
3.37096 8.84955 0.0
2.21557 8.83416 0.0
4.38747 9.11656 0.0
8.8649 9.0126 0.0
11.2566 22.1442 0.0
24.7142 4.6116 0.0
16.66 4.02591 0.0
-10.4895 5.5593 0.0
-16.3147 6.51099 0.0
-16.835 7.46175 0.0
-16.5846 8.06454 0.0
-15.9268 8.34158 0.0
-14.8283 8.43092 0.0
-13.2294 8.37883 0.0
-11.2277 8.12389 0.0
-9.12208 7.48578 0.0
-7.34403 6.15781 0.0
-6.16964 3.86503 0.0
-6.33365 4.3199 0.0
-8.28246 10.8831 0.0
-6.14054 9.30638 0.0
-6.49423 11.3001 0.0
-9.47265 11.8674 0.0
-11.4872 11.7639 0.0
8.8537 8.71084 0.0
8.07326 9.61437 0.0
1.72852 9.82553 0.0
-0.0336649 9.47123 0.0
2.78063 10.6715 0.0
4.5558 15.4157 0.0
0.025012 22.6336 0.0
-5.38426 24.3705 0.0
-10.7255 23.416 0.0
-13.9655 19.8568 0.0
-15.5682 15.6188 0.0
-16.4125 12.8597 0.0
-16.5413 11.5077 0.0
-16.0829 10.7106 0.0
-15.0393 9.99722 0.0
-13.3973 9.1723 0.0
-11.26 8.07838 0.0
-8.8855 6.44592 0.0
-6.48018 3.63022 0.0
-3.55744 -1.35511 0.0
-3.07317 0.701435 0.0
2.05246 8.32705 0.0
-3.85098 7.16972 0.0
-8.83591 12.7035 0.0
-9.94277 13.56 0.0
-11.8864 13.4012 0.0
8.07326 9.61437 0.0
8.16798 10.4578 0.0
1.28672 10.7035 0.0
-0.839972 9.98611 0.0
2.41132 16.2082 0.0
-1.40314 24.458 0.0
-6.35528 27.5959 0.0
-11.2049 28.0665 0.0
-13.9715 26.8191 0.0
-14.4781 24.9491 0.0
-15.0999 22.4345 0.0
-15.9104 19.3003 0.0
-16.3454 16.3445 0.0
-16.1427 14.0557 0.0
-15.2391 12.2514 0.0
-13.6548 10.5842 0.0
-11.5003 8.72684 0.0
-8.92401 6.12426 0.0
-4.1702 -1.35122 0.0
-1.46982 -5.92919 0.0
-3.24641 -5.64115 0.0
3.12319 5.3784 0.0
-5.13922 6.52306 0.0
-8.19743 14.1574 0.0
-10.131 14.826 0.0
-12.5079 14.745 0.0
8.16798 10.4578 0.0
8.78422 11.4084 0.0
1.56812 11.7375 0.0
-0.6785 10.7827 0.0
-1.6211 24.1297 0.0
-5.58374 28.4882 0.0
-9.91414 30.0722 0.0
-13.7904 29.808 0.0
-15.038 28.4708 0.0
-14.8653 27.4421 0.0
-15.2341 26.2475 0.0
-15.8933 24.3321 0.0
-16.3703 21.6812 0.0
-16.3197 18.6935 0.0
-15.5517 15.8193 0.0
-14.0521 13.174 0.0
-11.9454 10.5364 0.0
-9.39384 7.32033 0.0
3.95903 -15.2376 0.0
-0.849653 2.39933 0.0
-2.36748 -12.3748 0.0
3.23761 4.00617 0.0
-4.97426 11.9138 0.0
-7.62501 15.1589 0.0
-10.3361 15.8414 0.0
-13.1573 15.8806 0.0
8.78422 11.4084 0.0
9.55947 12.5908 0.0
2.07185 13.0903 0.0
-0.660306 14.2664 0.0
-5.66004 28.4964 0.0
-8.9153 31.2053 0.0
-12.5323 31.9255 0.0
-15.3522 31.0623 0.0
-15.6171 29.6454 0.0
-15.2844 29.057 0.0
-15.6466 28.5846 0.0
-16.2687 27.664 0.0
-16.7424 26.0067 0.0
-16.7545 23.5071 0.0
-16.0771 20.371 0.0
-14.6447 16.9919 0.0
-12.5742 13.5672 0.0
-10.0647 9.78208 0.0
10.2251 -21.7562 0.0
-5.3907 2.11239 0.0
11.6829 9.25984 0.0
5.12872 7.11613 0.0
-2.42013 13.3522 0.0
-7.34506 15.8843 0.0
-10.5756 16.6607 0.0
-13.7205 16.8109 0.0
9.55947 12.5908 0.0
10.1159 14.1997 0.0
2.18448 15.197 0.0
-3.16014 22.006 0.0
-9.03391 31.9265 0.0
-11.7462 33.459 0.0
-14.6433 33.565 0.0
-16.4475 32.1647 0.0
-16.0338 30.6586 0.0
-15.7153 30.3403 0.0
-16.1666 30.2998 0.0
-16.8433 30.0237 0.0
-17.3591 29.2057 0.0
-17.4315 27.5673 0.0
-16.8398 24.9752 0.0
-15.489 21.5826 0.0
-13.4769 17.7497 0.0
-11.0538 13.6935 0.0
-7.81899 12.3009 0.0
-8.67493 13.6107 0.0
9.35273 9.74974 0.0
5.27996 5.59344 0.0
-1.48607 12.707 0.0
-7.32348 16.4455 0.0
-10.8393 17.3568 0.0
-14.1367 17.5949 0.0
10.1159 14.1997 0.0
10.0301 16.5031 0.0
1.20311 18.568 0.0
-6.75307 28.3566 0.0
-11.8643 34.5492 0.0
-14.1924 35.4551 0.0
-16.4346 35.1329 0.0
-17.2981 33.2467 0.0
-16.3746 31.6334 0.0
-16.14 31.5091 0.0
-16.7261 31.7693 0.0
-17.5096 31.9274 0.0
-18.108 31.702 0.0
-18.26 30.8126 0.0
-17.7695 29.0141 0.0
-16.545 26.2226 0.0
-14.6794 22.6724 0.0
-12.5463 19.0636 0.0
-11.0856 18.9821 0.0
-8.3693 20.5261 0.0
0.386754 40.0321 0.0
4.26476 5.3016 0.0
-2.01945 12.6787 0.0
-7.60486 17.058 0.0
-11.1371 18.0434 0.0
-14.3487 18.3548 0.0
10.0301 16.5031 0.0
8.65072 19.9573 0.0
-1.55722 23.7308 0.0
-10.3028 32.958 0.0
-14.3451 36.7064 0.0
-16.3566 37.2959 0.0
-18.017 36.6887 0.0
-18.0012 34.3659 0.0
-16.6444 32.6278 0.0
-16.5237 32.6644 0.0
-17.2771 33.1702 0.0