# vtk DataFile Version 2.0
Particulate Flow Equations Solution
ASCII
DATASET STRUCTURED_GRID
DIMENSIONS 26 26 1
POINTS 676 double
-10 -10 0
-9.23077 -10 0
-8.46154 -10 0
-7.69231 -10 0
-6.92308 -10 0
-6.15385 -10 0
-5.38462 -10 0
-4.61538 -10 0
-3.84615 -10 0
-3.07692 -10 0
-2.30769 -10 0
-1.53846 -10 0
-0.769231 -10 0
5.55112e-016 -10 0
0.769231 -10 0
1.53846 -10 0
2.30769 -10 0
3.07692 -10 0
3.84615 -10 0
4.61538 -10 0
5.38462 -10 0
6.15385 -10 0
6.92308 -10 0
7.69231 -10 0
8.46154 -10 0
10 -10 0
-10 -9.23077 0
-9.23077 -9.23077 0
-8.46154 -9.23077 0
-7.69231 -9.23077 0
-6.92308 -9.23077 0
-6.15385 -9.23077 0
-5.38462 -9.23077 0
-4.61538 -9.23077 0
-3.84615 -9.23077 0
-3.07692 -9.23077 0
-2.30769 -9.23077 0
-1.53846 -9.23077 0
-0.769231 -9.23077 0
5.55112e-016 -9.23077 0
0.769231 -9.23077 0
1.53846 -9.23077 0
2.30769 -9.23077 0
3.07692 -9.23077 0
3.84615 -9.23077 0
4.61538 -9.23077 0
5.38462 -9.23077 0
6.15385 -9.23077 0
6.92308 -9.23077 0
7.69231 -9.23077 0
8.46154 -9.23077 0
10 -9.23077 0
-10 -8.46154 0
-9.23077 -8.46154 0
-8.46154 -8.46154 0
-7.69231 -8.46154 0
-6.92308 -8.46154 0
-6.15385 -8.46154 0
-5.38462 -8.46154 0
-4.61538 -8.46154 0
-3.84615 -8.46154 0
-3.07692 -8.46154 0
-2.30769 -8.46154 0
-1.53846 -8.46154 0
-0.769231 -8.46154 0
5.55112e-016 -8.46154 0
0.769231 -8.46154 0
1.53846 -8.46154 0
2.30769 -8.46154 0
3.07692 -8.46154 0
3.84615 -8.46154 0
4.61538 -8.46154 0
5.38462 -8.46154 0
6.15385 -8.46154 0
6.92308 -8.46154 0
7.69231 -8.46154 0
8.46154 -8.46154 0
10 -8.46154 0
-10 -7.69231 0
-9.23077 -7.69231 0
-8.46154 -7.69231 0
-7.69231 -7.69231 0
-6.92308 -7.69231 0
-6.15385 -7.69231 0
-5.38462 -7.69231 0
-4.61538 -7.69231 0
-3.84615 -7.69231 0
-3.07692 -7.69231 0
-2.30769 -7.69231 0
-1.53846 -7.69231 0
-0.769231 -7.69231 0
5.55112e-016 -7.69231 0
0.769231 -7.69231 0
1.53846 -7.69231 0
2.30769 -7.69231 0
3.07692 -7.69231 0
3.84615 -7.69231 0
4.61538 -7.69231 0
5.38462 -7.69231 0
6.15385 -7.69231 0
6.92308 -7.69231 0
7.69231 -7.69231 0
8.46154 -7.69231 0
10 -7.69231 0
-10 -6.92308 0
-9.23077 -6.92308 0
-8.46154 -6.92308 0
-7.69231 -6.92308 0
-6.92308 -6.92308 0
-6.15385 -6.92308 0
-5.38462 -6.92308 0
-4.61538 -6.92308 0
-3.84615 -6.92308 0
-3.07692 -6.92308 0
-2.30769 -6.92308 0
-1.53846 -6.92308 0
-0.769231 -6.92308 0
5.55112e-016 -6.92308 0
0.769231 -6.92308 0
1.53846 -6.92308 0
2.30769 -6.92308 0
3.07692 -6.92308 0
3.84615 -6.92308 0
4.61538 -6.92308 0
5.38462 -6.92308 0
6.15385 -6.92308 0
6.92308 -6.92308 0
7.69231 -6.92308 0
8.46154 -6.92308 0
10 -6.92308 0
-10 -6.15385 0
-9.23077 -6.15385 0
-8.46154 -6.15385 0
-7.69231 -6.15385 0
-6.92308 -6.15385 0
-6.15385 -6.15385 0
-5.38462 -6.15385 0
-4.61538 -6.15385 0
-3.84615 -6.15385 0
-3.07692 -6.15385 0
-2.30769 -6.15385 0
-1.53846 -6.15385 0
-0.769231 -6.15385 0
5.55112e-016 -6.15385 0
0.769231 -6.15385 0
1.53846 -6.15385 0
2.30769 -6.15385 0
3.07692 -6.15385 0
3.84615 -6.15385 0
4.61538 -6.15385 0
5.38462 -6.15385 0
6.15385 -6.15385 0
6.92308 -6.15385 0
7.69231 -6.15385 0
8.46154 -6.15385 0
10 -6.15385 0
-10 -5.38462 0
-9.23077 -5.38462 0
-8.46154 -5.38462 0
-7.69231 -5.38462 0
-6.92308 -5.38462 0
-6.15385 -5.38462 0
-5.38462 -5.38462 0
-4.61538 -5.38462 0
-3.84615 -5.38462 0
-3.07692 -5.38462 0
-2.30769 -5.38462 0
-1.53846 -5.38462 0
-0.769231 -5.38462 0
5.55112e-016 -5.38462 0
0.769231 -5.38462 0
1.53846 -5.38462 0
2.30769 -5.38462 0
3.07692 -5.38462 0
3.84615 -5.38462 0
4.61538 -5.38462 0
5.38462 -5.38462 0
6.15385 -5.38462 0
6.92308 -5.38462 0
7.69231 -5.38462 0
8.46154 -5.38462 0
10 -5.38462 0
-10 -4.61538 0
-9.23077 -4.61538 0
-8.46154 -4.61538 0
-7.69231 -4.61538 0
-6.92308 -4.61538 0
-6.15385 -4.61538 0
-5.38462 -4.61538 0
-4.61538 -4.61538 0
-3.84615 -4.61538 0
-3.07692 -4.61538 0
-2.30769 -4.61538 0
-1.53846 -4.61538 0
-0.769231 -4.61538 0
5.55112e-016 -4.61538 0
0.769231 -4.61538 0
1.53846 -4.61538 0
2.30769 -4.61538 0
3.07692 -4.61538 0
3.84615 -4.61538 0
4.61538 -4.61538 0
5.38462 -4.61538 0
6.15385 -4.61538 0
6.92308 -4.61538 0
7.69231 -4.61538 0
8.46154 -4.61538 0
10 -4.61538 0
-10 -3.84615 0
-9.23077 -3.84615 0
-8.46154 -3.84615 0
-7.69231 -3.84615 0
-6.92308 -3.84615 0
-6.15385 -3.84615 0
-5.38462 -3.84615 0
-4.61538 -3.84615 0
-3.84615 -3.84615 0
-3.07692 -3.84615 0
-2.30769 -3.84615 0
-1.53846 -3.84615 0
-0.769231 -3.84615 0
5.55112e-016 -3.84615 0
0.769231 -3.84615 0
1.53846 -3.84615 0
2.30769 -3.84615 0
3.07692 -3.84615 0
3.84615 -3.84615 0
4.61538 -3.84615 0
5.38462 -3.84615 0
6.15385 -3.84615 0
6.92308 -3.84615 0
7.69231 -3.84615 0
8.46154 -3.84615 0
10 -3.84615 0
-10 -3.07692 0
-9.23077 -3.07692 0
-8.46154 -3.07692 0
-7.69231 -3.07692 0
-6.92308 -3.07692 0
-6.15385 -3.07692 0
-5.38462 -3.07692 0
-4.61538 -3.07692 0
-3.84615 -3.07692 0
-3.07692 -3.07692 0
-2.30769 -3.07692 0
-1.53846 -3.07692 0
-0.769231 -3.07692 0
5.55112e-016 -3.07692 0
0.769231 -3.07692 0
1.53846 -3.07692 0
2.30769 -3.07692 0
3.07692 -3.07692 0
3.84615 -3.07692 0
4.61538 -3.07692 0
5.38462 -3.07692 0
6.15385 -3.07692 0
6.92308 -3.07692 0
7.69231 -3.07692 0
8.46154 -3.07692 0
10 -3.07692 0
-10 -2.30769 0
-9.23077 -2.30769 0
-8.46154 -2.30769 0
-7.69231 -2.30769 0
-6.92308 -2.30769 0
-6.15385 -2.30769 0
-5.38462 -2.30769 0
-4.61538 -2.30769 0
-3.84615 -2.30769 0
-3.07692 -2.30769 0
-2.30769 -2.30769 0
-1.53846 -2.30769 0
-0.769231 -2.30769 0
5.55112e-016 -2.30769 0
0.769231 -2.30769 0
1.53846 -2.30769 0
2.30769 -2.30769 0
3.07692 -2.30769 0
3.84615 -2.30769 0
4.61538 -2.30769 0
5.38462 -2.30769 0
6.15385 -2.30769 0
6.92308 -2.30769 0
7.69231 -2.30769 0
8.46154 -2.30769 0
10 -2.30769 0
-10 -1.53846 0
-9.23077 -1.53846 0
-8.46154 -1.53846 0
-7.69231 -1.53846 0
-6.92308 -1.53846 0
-6.15385 -1.53846 0
-5.38462 -1.53846 0
-4.61538 -1.53846 0
-3.84615 -1.53846 0
-3.07692 -1.53846 0
-2.30769 -1.53846 0
-1.53846 -1.53846 0
-0.769231 -1.53846 0
5.55112e-016 -1.53846 0
0.769231 -1.53846 0
1.53846 -1.53846 0
2.30769 -1.53846 0
3.07692 -1.53846 0
3.84615 -1.53846 0
4.61538 -1.53846 0
5.38462 -1.53846 0
6.15385 -1.53846 0
6.92308 -1.53846 0
7.69231 -1.53846 0
8.46154 -1.53846 0
10 -1.53846 0
-10 -0.769231 0
-9.23077 -0.769231 0
-8.46154 -0.769231 0
-7.69231 -0.769231 0
-6.92308 -0.769231 0
-6.15385 -0.769231 0
-5.38462 -0.769231 0
-4.61538 -0.769231 0
-3.84615 -0.769231 0
-3.07692 -0.769231 0
-2.30769 -0.769231 0
-1.53846 -0.769231 0
-0.769231 -0.769231 0
5.55112e-016 -0.769231 0
0.769231 -0.769231 0
1.53846 -0.769231 0
2.30769 -0.769231 0
3.07692 -0.769231 0
3.84615 -0.769231 0
4.61538 -0.769231 0
5.38462 -0.769231 0
6.15385 -0.769231 0
6.92308 -0.769231 0
7.69231 -0.769231 0
8.46154 -0.769231 0
10 -0.769231 0
-10 5.55112e-016 0
-9.23077 5.55112e-016 0
-8.46154 5.55112e-016 0
-7.69231 5.55112e-016 0
-6.92308 5.55112e-016 0
-6.15385 5.55112e-016 0
-5.38462 5.55112e-016 0
-4.61538 5.55112e-016 0
-3.84615 5.55112e-016 0
-3.07692 5.55112e-016 0
-2.30769 5.55112e-016 0
-1.53846 5.55112e-016 0
-0.769231 5.55112e-016 0
5.55112e-016 5.55112e-016 0
0.769231 5.55112e-016 0
1.53846 5.55112e-016 0
2.30769 5.55112e-016 0
3.07692 5.55112e-016 0
3.84615 5.55112e-016 0
4.61538 5.55112e-016 0
5.38462 5.55112e-016 0
6.15385 5.55112e-016 0
6.92308 5.55112e-016 0
7.69231 5.55112e-016 0
8.46154 5.55112e-016 0
10 5.55112e-016 0
-10 0.769231 0
-9.23077 0.769231 0
-8.46154 0.769231 0
-7.69231 0.769231 0
-6.92308 0.769231 0
-6.15385 0.769231 0
-5.38462 0.769231 0
-4.61538 0.769231 0
-3.84615 0.769231 0
-3.07692 0.769231 0
-2.30769 0.769231 0
-1.53846 0.769231 0
-0.769231 0.769231 0
5.55112e-016 0.769231 0
0.769231 0.769231 0
1.53846 0.769231 0
2.30769 0.769231 0
3.07692 0.769231 0
3.84615 0.769231 0
4.61538 0.769231 0
5.38462 0.769231 0
6.15385 0.769231 0
6.92308 0.769231 0
7.69231 0.769231 0
8.46154 0.769231 0
10 0.769231 0
-10 1.53846 0
-9.23077 1.53846 0
-8.46154 1.53846 0
-7.69231 1.53846 0
-6.92308 1.53846 0
-6.15385 1.53846 0
-5.38462 1.53846 0
-4.61538 1.53846 0
-3.84615 1.53846 0
-3.07692 1.53846 0
-2.30769 1.53846 0
-1.53846 1.53846 0
-0.769231 1.53846 0
5.55112e-016 1.53846 0
0.769231 1.53846 0
1.53846 1.53846 0
2.30769 1.53846 0
3.07692 1.53846 0
3.84615 1.53846 0
4.61538 1.53846 0
5.38462 1.53846 0
6.15385 1.53846 0
6.92308 1.53846 0
7.69231 1.53846 0
8.46154 1.53846 0
10 1.53846 0
-10 2.30769 0
-9.23077 2.30769 0
-8.46154 2.30769 0
-7.69231 2.30769 0
-6.92308 2.30769 0
-6.15385 2.30769 0
-5.38462 2.30769 0
-4.61538 2.30769 0
-3.84615 2.30769 0
-3.07692 2.30769 0
-2.30769 2.30769 0
-1.53846 2.30769 0
-0.769231 2.30769 0
5.55112e-016 2.30769 0
0.769231 2.30769 0
1.53846 2.30769 0
2.30769 2.30769 0
3.07692 2.30769 0
3.84615 2.30769 0
4.61538 2.30769 0
5.38462 2.30769 0
6.15385 2.30769 0
6.92308 2.30769 0
7.69231 2.30769 0
8.46154 2.30769 0
10 2.30769 0
-10 3.07692 0
-9.23077 3.07692 0
-8.46154 3.07692 0
-7.69231 3.07692 0
-6.92308 3.07692 0
-6.15385 3.07692 0
-5.38462 3.07692 0
-4.61538 3.07692 0
-3.84615 3.07692 0
-3.07692 3.07692 0
-2.30769 3.07692 0
-1.53846 3.07692 0
-0.769231 3.07692 0
5.55112e-016 3.07692 0
0.769231 3.07692 0
1.53846 3.07692 0
2.30769 3.07692 0
3.07692 3.07692 0
3.84615 3.07692 0
4.61538 3.07692 0
5.38462 3.07692 0
6.15385 3.07692 0
6.92308 3.07692 0
7.69231 3.07692 0
8.46154 3.07692 0
10 3.07692 0
-10 3.84615 0
-9.23077 3.84615 0
-8.46154 3.84615 0
-7.69231 3.84615 0
-6.92308 3.84615 0
-6.15385 3.84615 0
-5.38462 3.84615 0
-4.61538 3.84615 0
-3.84615 3.84615 0
-3.07692 3.84615 0
-2.30769 3.84615 0
-1.53846 3.84615 0
-0.769231 3.84615 0
5.55112e-016 3.84615 0
0.769231 3.84615 0
1.53846 3.84615 0
2.30769 3.84615 0
3.07692 3.84615 0
3.84615 3.84615 0
4.61538 3.84615 0
5.38462 3.84615 0
6.15385 3.84615 0
6.92308 3.84615 0
7.69231 3.84615 0
8.46154 3.84615 0
10 3.84615 0
-10 4.61538 0
-9.23077 4.61538 0
-8.46154 4.61538 0
-7.69231 4.61538 0
-6.92308 4.61538 0
-6.15385 4.61538 0
-5.38462 4.61538 0
-4.61538 4.61538 0
-3.84615 4.61538 0
-3.07692 4.61538 0
-2.30769 4.61538 0
-1.53846 4.61538 0
-0.769231 4.61538 0
5.55112e-016 4.61538 0
0.769231 4.61538 0
1.53846 4.61538 0
2.30769 4.61538 0
3.07692 4.61538 0
3.84615 4.61538 0
4.61538 4.61538 0
5.38462 4.61538 0
6.15385 4.61538 0
6.92308 4.61538 0
7.69231 4.61538 0
8.46154 4.61538 0
10 4.61538 0
-10 5.38462 0
-9.23077 5.38462 0
-8.46154 5.38462 0
-7.69231 5.38462 0
-6.92308 5.38462 0
-6.15385 5.38462 0
-5.38462 5.38462 0
-4.61538 5.38462 0
-3.84615 5.38462 0
-3.07692 5.38462 0
-2.30769 5.38462 0
-1.53846 5.38462 0
-0.769231 5.38462 0
5.55112e-016 5.38462 0
0.769231 5.38462 0
1.53846 5.38462 0
2.30769 5.38462 0
3.07692 5.38462 0
3.84615 5.38462 0
4.61538 5.38462 0
5.38462 5.38462 0
6.15385 5.38462 0
6.92308 5.38462 0
7.69231 5.38462 0
8.46154 5.38462 0
10 5.38462 0
-10 6.15385 0
-9.23077 6.15385 0
-8.46154 6.15385 0
-7.69231 6.15385 0
-6.92308 6.15385 0
-6.15385 6.15385 0
-5.38462 6.15385 0
-4.61538 6.15385 0
-3.84615 6.15385 0
-3.07692 6.15385 0
-2.30769 6.15385 0
-1.53846 6.15385 0
-0.769231 6.15385 0
5.55112e-016 6.15385 0
0.769231 6.15385 0
1.53846 6.15385 0
2.30769 6.15385 0
3.07692 6.15385 0
3.84615 6.15385 0
4.61538 6.15385 0
5.38462 6.15385 0
6.15385 6.15385 0
6.92308 6.15385 0
7.69231 6.15385 0
8.46154 6.15385 0
10 6.15385 0
-10 6.92308 0
-9.23077 6.92308 0
-8.46154 6.92308 0
-7.69231 6.92308 0
-6.92308 6.92308 0
-6.15385 6.92308 0
-5.38462 6.92308 0
-4.61538 6.92308 0
-3.84615 6.92308 0
-3.07692 6.92308 0
-2.30769 6.92308 0
-1.53846 6.92308 0
-0.769231 6.92308 0
5.55112e-016 6.92308 0
0.769231 6.92308 0
1.53846 6.92308 0
2.30769 6.92308 0
3.07692 6.92308 0
3.84615 6.92308 0
4.61538 6.92308 0
5.38462 6.92308 0
6.15385 6.92308 0
6.92308 6.92308 0
7.69231 6.92308 0
8.46154 6.92308 0
10 6.92308 0
-10 7.69231 0
-9.23077 7.69231 0
-8.46154 7.69231 0
-7.69231 7.69231 0
-6.92308 7.69231 0
-6.15385 7.69231 0
-5.38462 7.69231 0
-4.61538 7.69231 0
-3.84615 7.69231 0
-3.07692 7.69231 0
-2.30769 7.69231 0
-1.53846 7.69231 0
-0.769231 7.69231 0
5.55112e-016 7.69231 0
0.769231 7.69231 0
1.53846 7.69231 0
2.30769 7.69231 0
3.07692 7.69231 0
3.84615 7.69231 0
4.61538 7.69231 0
5.38462 7.69231 0
6.15385 7.69231 0
6.92308 7.69231 0
7.69231 7.69231 0
8.46154 7.69231 0
10 7.69231 0
-10 8.46154 0
-9.23077 8.46154 0
-8.46154 8.46154 0
-7.69231 8.46154 0
-6.92308 8.46154 0
-6.15385 8.46154 0
-5.38462 8.46154 0
-4.61538 8.46154 0
-3.84615 8.46154 0
-3.07692 8.46154 0
-2.30769 8.46154 0
-1.53846 8.46154 0
-0.769231 8.46154 0
5.55112e-016 8.46154 0
0.769231 8.46154 0
1.53846 8.46154 0
2.30769 8.46154 0
3.07692 8.46154 0
3.84615 8.46154 0
4.61538 8.46154 0
5.38462 8.46154 0
6.15385 8.46154 0
6.92308 8.46154 0
7.69231 8.46154 0
8.46154 8.46154 0
10 8.46154 0
-10 10 0
-9.23077 10 0
-8.46154 10 0
-7.69231 10 0
-6.92308 10 0
-6.15385 10 0
-5.38462 10 0
-4.61538 10 0
-3.84615 10 0
-3.07692 10 0
-2.30769 10 0
-1.53846 10 0
-0.769231 10 0
5.55112e-016 10 0
0.769231 10 0
1.53846 10 0
2.30769 10 0
3.07692 10 0
3.84615 10 0
4.61538 10 0
5.38462 10 0
6.15385 10 0
6.92308 10 0
7.69231 10 0
8.46154 10 0
10 10 0

POINT_DATA 676
SCALARS h double 1
LOOkUP_TABLE default
0.0564876
0.0513224
0.0468515
0.0431212
0.0402021
0.0382076
0.037293
0.0376644
0.0395773
0.0433021
0.0490346
0.0567463
0.0660256
0.0760061
0.0854745
0.0931566
0.0980657
0.0997527
0.0983539
0.0944486
0.0888225
0.0822519
0.0753651
0.0686072
0.0622531
0.0564876
0.0669413
0.0600827
0.0540392
0.0488261
0.0444813
0.0410929
0.0387941
0.0377855
0.0383549
0.0408745
0.0457449
0.0532518
0.0633388
0.0753861
0.0881455
0.0999454
0.109127
0.114514
0.1157
0.113043
0.107417
0.0998921
0.0914449
0.0828535
0.0745787
0.0669413
0.0798229
0.0709155
0.0630085
0.05609
0.0501646
0.0452855
0.0415418
0.0390903
0.0381898
0.0392284
0.0427168
0.0491993
0.0590361
0.0720791
0.0873882
0.103208
0.117322
0.127679
0.132987
0.133004
0.128435
0.120539
0.110711
0.100133
0.0896585
0.0798229
0.0954097
0.0841052
0.0739741
0.0650401
0.0572977
0.0507622
0.0454674
0.0415031
0.0390569
0.0384602
0.0402234
0.0450211
0.0535537
0.0662303
0.0827279
0.10166
0.12064
0.136852
0.147887
0.152454
0.150619
0.143558
0.132972
0.120587
0.107749
0.0954097
0.113894
0.0998639
0.0871362
0.0758317
0.0659734
0.0575549
0.0505558
0.0449893
0.040949
0.0386622
0.0385488
0.0412658
0.0476764
0.0586437
0.0745847
0.0949006
0.117626
0.139647
0.157528
0.168589
0.171696
0.167378
0.157372
0.143868
0.128865
0.113894
0.135085
0.118217
0.102598
0.0885763
0.0762755
0.0657051
0.0568074
0.0495223
0.0438434
0.0398734
0.0378887
0.0384142
0.0422767
0.050549
0.0642504
0.0837448
0.108043
0.134478
0.159141
0.178024
0.188328
0.189263
0.181977
0.168836
0.152455
0.135085
0.158169
0.138772
0.120213
0.103247
0.0882174
0.0752234
0.0642105
0.0550658
0.0476917
0.0420664
0.0383074
0.03675
0.0380392
0.04319
0.0534938
0.0700977
0.0932266
0.121377
0.151085
0.177651
0.196641
0.205365
0.203588
0.193181
0.177051
0.158169
0.181372
0.160457
0.139387
0.119539
0.101649
0.0860303
0.0727067
0.0615566
0.0524168
0.045158
0.0397496
0.0363304
0.0353026
0.0374413
0.0439572
0.056346
0.0758216
0.102359
0.13383
0.16595
0.193367
0.211477
0.217971
0.213312
0.19999
0.181372
0.201796
0.181278
0.158852
0.136693
0.116135
0.0978764
0.0821423
0.0688808
0.0579108
0.0490287
0.042083
0.0370417
0.0340713
0.033645
0.0366688
0.0445358
0.0588986
0.0809406
0.110271
0.144091
0.177404
0.20448
0.220864
0.224827
0.217462
0.201796
0.215653
0.198283
0.176517
0.153331
0.130815
0.110242
0.0922032
0.0768361
0.0640215
0.0535338
0.0451426
0.0386857
0.0341376
0.0316963
0.0319044
0.035785
0.0448739
0.0608969
0.0848912
0.116023
0.150885
0.18402
0.209656
0.223763
0.2252
0.215653
0.219123
0.207956
0.189565
0.167408
0.144307
0.122241
0.10234
0.0850824
0.070525
0.0585
0.0487552
0.0410488
0.0352193
0.0312549
0.0293862
0.0302157
0.0348535
0.0449117
0.0620833
0.0871577
0.118856
0.153334
0.18499
0.208336
0.219879
0.219123
0.209763
0.207166
0.194966
0.176415
0.154742
0.132585
0.111713
0.0930912
0.0770901
0.0637051
0.0527399
0.0439345
0.0370508
0.0319386
0.0286055
0.027312
0.0287036
0.0339332
0.0446064
0.0622778
0.0874282
0.118407
0.15117
0.180282
0.200744
0.209763
0.187883
0.194466
0.190424
0.17795
0.160046
0.139684
0.119202
0.100122
0.0832471
0.0688521
0.0568928
0.0471651
0.0394176
0.0334292
0.0290703
0.0263713
0.0256174
0.0274738
0.0330844
0.0439636
0.0614429
0.0856835
0.114786
0.14475
0.17054
0.187883
0.156993
0.1711
0.175451
0.170566
0.158488
0.141949
0.123545
0.105267
0.0883874
0.0735532
0.0609675
0.0505657
0.0421527
0.0355002
0.0304144
0.026793
0.0246908
0.0244097
0.0266092
0.0323714
0.043047
0.0596922
0.0821782
0.108502
0.134902
0.156993
0.122793
0.141006
0.15198
0.154571
0.149377
0.138278
0.123625
0.107593
0.0918214
0.0773411
0.0646666
0.0539481
0.0451174
0.038002
0.0324067
0.0281724
0.0252287
0.0236543
0.0237576
0.0261668
0.0318566
0.0419629
0.0572489
0.0773572
0.100311
0.122793
0.0911014
0.109551
0.124002
0.132274
0.133575
0.128564
0.118856
0.106389
0.0929106
0.0797287
0.0676587
0.0571056
0.0481844
0.0408366
0.0349218
0.0302845
0.026805
0.0244459
0.0233068
0.0236919
0.026174
0.0315882
0.0408301
0.0543871
0.0717456
0.0911014
0.0658823
0.0816275
0.0962397
0.107395
0.11346
0.11396
0.109517
0.101442
0.091256
0.080315
0.0696278
0.0598275
0.0512326
0.0439387
0.0379071
0.0330355
0.0292119
0.0263573
0.0244663
0.0236534
0.0242067
0.0266261
0.0315892
0.039755
0.0513759
0.0658823
0.0484591
0.0601587
0.0725445
0.0838266
0.0922493
0.0966714
0.0968229
0.0932236
0.0868757
0.0789144
0.0703485
0.061934
0.054155
0.0472664
0.041359
0.0364218
0.0323948
0.0292106
0.0268291
0.0252726
0.0246631
0.0252617
0.0274848
0.0318529
0.0388145
0.0484591
0.0380631
0.0457652
0.0548929
0.0644099
0.072958
0.0792953
0.082644
0.0828446
0.0802787
0.0756525
0.0697614
0.0633196
0.0568765
0.0508019
0.0453111
0.0405036
0.0364039
0.0329968
0.030258
0.0281823
0.0268128
0.0262712
0.0267838
0.028682
0.0323452
0.0380631
0.0330205
0.0374777
0.0433973
0.0503556
0.0575518
0.0640328
0.0689482
0.0717683
0.0723683
0.0709704
0.0680076
0.0639828
0.0593675
0.0545507
0.0498238
0.0453871
0.0413648
0.037824
0.0347952
0.0322938
0.0303433
0.0290005
0.0283801
0.0286707
0.0301267
0.0330205
0.0317229
0.0337778
0.037047
0.041465
0.0466845
0.052158
0.0572493
0.0613887
0.064194
0.0655133
0.065394
0.0640176
0.0616363
0.0585281
0.0549677
0.0512064
0.0474574
0.0438862
0.0406098
0.0377042
0.0352196
0.0332016
0.0317146
0.0308622
0.0307988
0.0317229
0.0330424
0.0333266
0.0345483
0.0368023
0.0400119
0.0439634
0.0483194
0.0526813
0.0566631
0.0599443
0.062291
0.0635578
0.0636883
0.0627197
0.0607831
0.0580876
0.054887
0.0514385
0.0479671
0.0446462
0.0415959
0.0388961
0.036609
0.0348019
0.0335687
0.0330424
0.036351
0.0352276
0.0348367
0.0353253
0.036742
0.0390781
0.0422453
0.0460787
0.0503488
0.0547709
0.0590094
0.0626931
0.0654573
0.0670114
0.0672089
0.0660831
0.0638318
0.0607595
0.0572012
0.0534599
0.0497712
0.0462975
0.043144
0.0403844
0.0380893
0.036351
0.0414217
0.0390229
0.037243
0.0362356
0.0360886
0.0368912
0.0387109
0.0415795
0.0454728
0.0502745
0.0557293
0.0614116
0.0667492
0.0711196
0.0739958
0.0750796
0.0743628
0.0720953
0.0686852
0.0645815
0.0601829
0.0557918
0.0516113
0.0477672
0.0443442
0.0414217
0.048089
0.0443867
0.0412959
0.0389269
0.0373701
0.0367461
0.0371957
0.0388741
0.0419308
0.0464596
0.0524104
0.0594874
0.0670927
0.0743769
0.0804141
0.0844413
0.0860535
0.0852725
0.0824729
0.0782233
0.0731204
0.0676711
0.0622478
0.057085
0.0523381
0.048089
0.0564876
0.0513224
0.0468515
0.0431212
0.0402021
0.0382076
0.037293
0.0376644
0.0395773
0.0433021
0.0490346
0.0567463
0.0660256
0.0760061
0.0854745
0.0931566
0.0980657
0.0997527
0.0983539
0.0944486
0.0888225
0.0822519
0.0753651
0.0686072
0.0622531
0.0564876

VECTORS u double
-181.749 172.036 0.0
-181.989 171.067 0.0
-182.024 169.992 0.0
-181.941 168.848 0.0
-181.745 167.673 0.0
-181.442 166.533 0.0
-181.048 165.524 0.0
-180.599 164.769 0.0
-180.154 164.395 0.0
-179.78 164.493 0.0
-179.541 165.076 0.0
-179.471 166.064 0.0
-179.562 167.313 0.0
-179.776 168.669 0.0
-180.064 170 0.0
-180.378 171.214 0.0
-180.682 172.252 0.0
-180.955 173.078 0.0
-181.188 173.676 0.0
-181.384 174.04 0.0
-181.549 174.171 0.0
-181.688 174.08 0.0
-181.807 173.79 0.0
-181.892 173.31 0.0
-181.932 172.73 0.0
-181.749 172.036 0.0
-183.117 173.319 0.0
-183.282 172.413 0.0
-183.278 171.225 0.0
-183.162 169.994 0.0
-182.922 168.729 0.0
-182.546 167.47 0.0
-182.036 166.289 0.0
-181.416 165.297 0.0
-180.744 164.635 0.0
-180.114 164.446 0.0
-179.635 164.811 0.0
-179.39 165.697 0.0
-179.401 166.959 0.0
-179.629 168.41 0.0
-180.005 169.881 0.0
-180.456 171.251 0.0
-180.925 172.445 0.0
-181.375 173.421 0.0
-181.786 174.158 0.0
-182.15 174.649 0.0
-182.469 174.898 0.0
-182.754 174.919 0.0
-183.001 174.73 0.0
-183.266 174.363 0.0
-183.414 173.853 0.0
-183.117 173.319 0.0
-184.7 174.273 0.0
-184.697 173.45 0.0
-184.592 172.236 0.0
-184.421 170.949 0.0
-184.14 169.616 0.0
-183.72 168.269 0.0
-183.146 166.961 0.0
-182.421 165.776 0.0
-181.583 164.846 0.0
-180.72 164.337 0.0
-179.969 164.399 0.0
-179.473 165.08 0.0
-179.314 166.275 0.0
-179.477 167.78 0.0
-179.883 169.38 0.0
-180.434 170.915 0.0
-181.05 172.286 0.0
-181.671 173.439 0.0
-182.266 174.347 0.0
-182.818 175.003 0.0
-183.325 175.408 0.0
-183.787 175.573 0.0
-184.222 175.516 0.0
-184.617 175.246 0.0
-184.968 174.812 0.0
-184.7 174.273 0.0
-186.109 174.968 0.0
-186.057 174.153 0.0
-185.886 172.981 0.0
-185.666 171.68 0.0
-185.35 170.308 0.0
-184.902 168.903 0.0
-184.297 167.505 0.0
-183.522 166.18 0.0
-182.588 165.029 0.0
-181.553 164.211 0.0
-180.547 163.917 0.0
-179.754 164.287 0.0
-179.334 165.308 0.0
-179.339 166.796 0.0
-179.703 168.498 0.0
-180.31 170.202 0.0
-181.047 171.768 0.0
-181.834 173.125 0.0
-182.619 174.236 0.0
-183.376 175.088 0.0
-184.088 175.677 0.0
-184.754 176.007 0.0
-185.358 176.083 0.0
-185.908 175.909 0.0
-186.301 175.508 0.0
-186.109 174.968 0.0
-187.288 175.404 0.0
-187.258 174.614 0.0
-187.077 173.492 0.0
-186.832 172.204 0.0
-186.494 170.817 0.0
-186.032 169.377 0.0
-185.417 167.922 0.0
-184.628 166.502 0.0
-183.658 165.19 0.0
-182.53 164.114 0.0
-181.334 163.461 0.0
-180.249 163.439 0.0
-179.502 164.158 0.0
-179.246 165.521 0.0
-179.477 167.268 0.0
-180.077 169.124 0.0
-180.902 170.896 0.0
-181.84 172.477 0.0
-182.813 173.813 0.0
-183.777 174.882 0.0
-184.702 175.671 0.0
-185.563 176.173 0.0
-186.338 176.385 0.0
-186.995 176.297 0.0
-187.46 175.936 0.0
-187.288 175.404 0.0
-188.263 175.59 0.0
-188.282 174.852 0.0
-188.121 173.792 0.0
-187.876 172.536 0.0
-187.533 171.155 0.0
-187.067 169.7 0.0
-186.454 168.213 0.0
-185.673 166.735 0.0
-184.708 165.319 0.0
-183.556 164.056 0.0
-182.26 163.096 0.0
-180.951 162.661 0.0
-179.866 162.963 0.0
-179.257 164.053 0.0
-179.242 165.738 0.0
-179.747 167.7 0.0
-180.606 169.668 0.0
-181.663 171.48 0.0
-182.808 173.052 0.0
-183.968 174.347 0.0
-185.091 175.342 0.0
-186.14 176.021 0.0
-187.067 176.371 0.0
-187.841 176.381 0.0
-188.373 176.08 0.0
-188.263 175.59 0.0
-189 175.525 0.0
-189.095 174.872 0.0
-188.982 173.892 0.0
-188.761 172.688 0.0
-188.431 171.334 0.0
-187.974 169.886 0.0
-187.373 168.389 0.0
-186.611 166.882 0.0
-185.671 165.408 0.0
-184.54 164.028 0.0
-183.226 162.848 0.0
-181.798 162.05 0.0
-180.439 161.884 0.0
-179.441 162.547 0.0
-179.062 164.005 0.0
-179.349 165.97 0.0
-180.155 168.092 0.0
-181.279 170.123 0.0
-182.561 171.93 0.0
-183.892 173.452 0.0
-185.197 174.655 0.0
-186.416 175.514 0.0
-187.495 176.014 0.0
-188.389 176.142 0.0
-189.02 175.934 0.0
-189 175.525 0.0
-189.472 175.206 0.0
-189.669 174.671 0.0
-189.629 173.796 0.0
-189.457 172.67 0.0
-189.16 171.367 0.0
-188.728 169.948 0.0
-188.149 168.463 0.0
-187.413 166.953 0.0
-186.506 165.457 0.0
-185.415 164.018 0.0
-184.135 162.706 0.0
-182.685 161.648 0.0
-181.171 161.056 0.0
-179.836 161.199 0.0
-179.019 162.234 0.0
-178.945 164.024 0.0
-179.569 166.201 0.0
-180.675 168.412 0.0
-182.042 170.44 0.0
-183.509 172.184 0.0
-184.97 173.593 0.0
-186.348 174.639 0.0
-187.577 175.305 0.0
-188.61 175.578 0.0
-189.366 175.496 0.0
-189.472 175.206 0.0
-189.646 174.633 0.0
-189.974 174.247 0.0
-190.035 173.506 0.0
-189.937 172.488 0.0
-189.694 171.265 0.0
-189.304 169.901 0.0
-188.761 168.452 0.0
-188.058 166.963 0.0
-187.188 165.473 0.0
-186.144 164.02 0.0
-184.916 162.65 0.0
-183.505 161.443 0.0
-181.953 160.544 0.0
-180.41 160.193 0.0
-179.182 160.663 0.0
-178.631 162.044 0.0
-178.908 164.092 0.0
-179.867 166.388 0.0
-181.24 168.601 0.0
-182.799 170.554 0.0
-184.39 172.168 0.0
-185.913 173.407 0.0
-187.293 174.253 0.0
-188.477 174.695 0.0
-189.384 174.771 0.0
-189.646 174.633 0.0
-189.5 173.811 0.0
-189.985 173.6 0.0
-190.173 173.022 0.0
-190.175 172.142 0.0
-190.011 171.03 0.0
-189.683 169.752 0.0
-189.191 168.367 0.0
-188.532 166.925 0.0
-187.705 165.469 0.0
-186.708 164.036 0.0
-185.536 162.663 0.0
-184.185 161.399 0.0
-182.668 160.331 0.0
-181.054 159.622 0.0
-179.547 159.53 0.0
-178.508 160.308 0.0
-178.283 161.963 0.0
-178.92 164.161 0.0
-180.18 166.472 0.0
-181.764 168.602 0.0
-183.453 170.412 0.0
-185.108 171.847 0.0
-186.637 172.884 0.0
-187.981 173.514 0.0
-189.055 173.773 0.0
-189.5 173.811 0.0
-189.017 172.755 0.0
-189.681 172.737 0.0
-190.023 172.346 0.0
-190.152 171.634 0.0
-190.091 170.666 0.0
-189.847 169.505 0.0
-189.424 168.214 0.0
-188.823 166.848 0.0
-188.048 165.454 0.0
-187.101 164.072 0.0
-185.982 162.736 0.0
-184.693 161.481 0.0
-183.237 160.359 0.0
-181.642 159.462 0.0
-180.015 158.96 0.0
-178.611 159.115 0.0
-177.829 160.139 0.0
-177.958 161.955 0.0
-178.93 164.181 0.0
-180.437 166.406 0.0
-182.175 168.383 0.0
-183.94 170.006 0.0
-185.613 171.239 0.0
-187.119 172.067 0.0
-188.37 172.524 0.0
-189.017 172.755 0.0
-188.189 171.487 0.0
-189.052 171.671 0.0
-189.572 171.483 0.0
-189.851 170.965 0.0
-189.917 170.169 0.0
-189.779 169.158 0.0
-189.445 167.994 0.0
-188.92 166.735 0.0
-188.209 165.432 0.0
-187.319 164.13 0.0
-186.255 162.865 0.0
-185.023 161.667 0.0
-183.63 160.57 0.0
-182.089 159.622 0.0
-180.453 158.915 0.0
-178.866 158.617 0.0
-177.634 158.97 0.0
-177.154 160.137 0.0
-177.632 161.983 0.0
-178.894 164.118 0.0
-180.592 166.177 0.0
-182.432 167.956 0.0
-184.234 169.373 0.0
-185.898 170.399 0.0
-187.328 171.058 0.0
-188.189 171.487 0.0
-187.021 170.042 0.0
-188.096 170.425 0.0
-188.812 170.448 0.0
-189.264 170.138 0.0
-189.478 169.539 0.0
-189.469 168.706 0.0
-189.245 167.7 0.0
-188.813 166.579 0.0
-188.182 165.399 0.0
-187.359 164.208 0.0
-186.356 163.044 0.0
-185.181 161.939 0.0
-183.846 160.92 0.0
-182.366 160.015 0.0
-180.773 159.265 0.0
-179.142 158.751 0.0
-177.658 158.626 0.0
-176.654 159.097 0.0
-176.497 160.281 0.0
-177.291 162.024 0.0
-178.788 163.971 0.0
-180.624 165.808 0.0
-182.526 167.364 0.0
-184.337 168.567 0.0
-185.943 169.421 0.0
-187.021 170.042 0.0
-185.528 168.468 0.0
-186.821 169.035 0.0
-187.745 169.263 0.0
-188.387 169.166 0.0
-188.771 168.778 0.0
-188.91 168.146 0.0
-188.814 167.324 0.0
-188.494 166.372 0.0
-187.958 165.346 0.0
-187.218 164.295 0.0
-186.285 163.263 0.0
-185.173 162.283 0.0
-183.897 161.381 0.0
-182.478 160.575 0.0
-180.944 159.885 0.0
-179.343 159.34 0.0
-177.78 159.002 0.0
-176.464 158.994 0.0
-175.731 159.482 0.0
-175.887 160.556 0.0
-176.946 162.082 0.0
-178.616 163.766 0.0
-180.539 165.343 0.0
-182.466 166.662 0.0
-184.235 167.675 0.0
-185.528 168.468 0.0
-183.738 166.839 0.0
-185.248 167.557 0.0
-186.386 167.968 0.0
-187.229 168.075 0.0
-187.797 167.9 0.0
-188.1 167.48 0.0
-188.151 166.863 0.0
-187.959 166.104 0.0
-187.536 165.259 0.0
-186.892 164.379 0.0
-186.042 163.509 0.0
-185.003 162.684 0.0
-183.794 161.929 0.0
-182.442 161.262 0.0
-180.975 160.69 0.0
-179.438 160.22 0.0
-177.897 159.864 0.0
-176.475 159.66 0.0
-175.39 159.695 0.0
-174.944 160.099 0.0
-175.373 160.956 0.0
-176.626 162.178 0.0
-178.399 163.545 0.0
-180.355 164.835 0.0
-182.249 165.925 0.0
-183.738 166.839 0.0
-181.717 165.28 0.0
-183.421 166.079 0.0
-184.767 166.628 0.0
-185.813 166.91 0.0
-186.571 166.934 0.0
-187.051 166.724 0.0
-187.261 166.321 0.0
-187.212 165.772 0.0
-186.914 165.131 0.0
-186.382 164.447 0.0
-185.63 163.767 0.0
-184.678 163.124 0.0
-183.55 162.546 0.0
-182.276 162.045 0.0
-180.892 161.626 0.0
-179.439 161.285 0.0
-177.974 161.013 0.0
-176.574 160.803 0.0
-175.366 160.669 0.0
-174.55 160.669 0.0
-174.377 160.905 0.0
-175.013 161.469 0.0
-176.374 162.335 0.0
-178.171 163.349 0.0
-180.086 164.349 0.0
-181.717 165.28 0.0
-179.6 163.989 0.0
-181.433 164.744 0.0
-182.95 165.345 0.0
-184.183 165.745 0.0
-185.128 165.932 0.0
-185.786 165.913 0.0
-186.162 165.717 0.0
-186.264 165.384 0.0