# vtk DataFile Version 2.0
Particulate Flow Equations Solution
ASCII
DATASET STRUCTURED_GRID
DIMENSIONS 26 26 1
POINTS 676 double
-10 -10 0
-9.23077 -10 0
-8.46154 -10 0
-7.69231 -10 0
-6.92308 -10 0
-6.15385 -10 0
-5.38462 -10 0
-4.61538 -10 0
-3.84615 -10 0
-3.07692 -10 0
-2.30769 -10 0
-1.53846 -10 0
-0.769231 -10 0
5.55112e-016 -10 0
0.769231 -10 0
1.53846 -10 0
2.30769 -10 0
3.07692 -10 0
3.84615 -10 0
4.61538 -10 0
5.38462 -10 0
6.15385 -10 0
6.92308 -10 0
7.69231 -10 0
8.46154 -10 0
10 -10 0
-10 -9.23077 0
-9.23077 -9.23077 0
-8.46154 -9.23077 0
-7.69231 -9.23077 0
-6.92308 -9.23077 0
-6.15385 -9.23077 0
-5.38462 -9.23077 0
-4.61538 -9.23077 0
-3.84615 -9.23077 0
-3.07692 -9.23077 0
-2.30769 -9.23077 0
-1.53846 -9.23077 0
-0.769231 -9.23077 0
5.55112e-016 -9.23077 0
0.769231 -9.23077 0
1.53846 -9.23077 0
2.30769 -9.23077 0
3.07692 -9.23077 0
3.84615 -9.23077 0
4.61538 -9.23077 0
5.38462 -9.23077 0
6.15385 -9.23077 0
6.92308 -9.23077 0
7.69231 -9.23077 0
8.46154 -9.23077 0
10 -9.23077 0
-10 -8.46154 0
-9.23077 -8.46154 0
-8.46154 -8.46154 0
-7.69231 -8.46154 0
-6.92308 -8.46154 0
-6.15385 -8.46154 0
-5.38462 -8.46154 0
-4.61538 -8.46154 0
-3.84615 -8.46154 0
-3.07692 -8.46154 0
-2.30769 -8.46154 0
-1.53846 -8.46154 0
-0.769231 -8.46154 0
5.55112e-016 -8.46154 0
0.769231 -8.46154 0
1.53846 -8.46154 0
2.30769 -8.46154 0
3.07692 -8.46154 0
3.84615 -8.46154 0
4.61538 -8.46154 0
5.38462 -8.46154 0
6.15385 -8.46154 0
6.92308 -8.46154 0
7.69231 -8.46154 0
8.46154 -8.46154 0
10 -8.46154 0
-10 -7.69231 0
-9.23077 -7.69231 0
-8.46154 -7.69231 0
-7.69231 -7.69231 0
-6.92308 -7.69231 0
-6.15385 -7.69231 0
-5.38462 -7.69231 0
-4.61538 -7.69231 0
-3.84615 -7.69231 0
-3.07692 -7.69231 0
-2.30769 -7.69231 0
-1.53846 -7.69231 0
-0.769231 -7.69231 0
5.55112e-016 -7.69231 0
0.769231 -7.69231 0
1.53846 -7.69231 0
2.30769 -7.69231 0
3.07692 -7.69231 0
3.84615 -7.69231 0
4.61538 -7.69231 0
5.38462 -7.69231 0
6.15385 -7.69231 0
6.92308 -7.69231 0
7.69231 -7.69231 0
8.46154 -7.69231 0
10 -7.69231 0
-10 -6.92308 0
-9.23077 -6.92308 0
-8.46154 -6.92308 0
-7.69231 -6.92308 0
-6.92308 -6.92308 0
-6.15385 -6.92308 0
-5.38462 -6.92308 0
-4.61538 -6.92308 0
-3.84615 -6.92308 0
-3.07692 -6.92308 0
-2.30769 -6.92308 0
-1.53846 -6.92308 0
-0.769231 -6.92308 0
5.55112e-016 -6.92308 0
0.769231 -6.92308 0
1.53846 -6.92308 0
2.30769 -6.92308 0
3.07692 -6.92308 0
3.84615 -6.92308 0
4.61538 -6.92308 0
5.38462 -6.92308 0
6.15385 -6.92308 0
6.92308 -6.92308 0
7.69231 -6.92308 0
8.46154 -6.92308 0
10 -6.92308 0
-10 -6.15385 0
-9.23077 -6.15385 0
-8.46154 -6.15385 0
-7.69231 -6.15385 0
-6.92308 -6.15385 0
-6.15385 -6.15385 0
-5.38462 -6.15385 0
-4.61538 -6.15385 0
-3.84615 -6.15385 0
-3.07692 -6.15385 0
-2.30769 -6.15385 0
-1.53846 -6.15385 0
-0.769231 -6.15385 0
5.55112e-016 -6.15385 0
0.769231 -6.15385 0
1.53846 -6.15385 0
2.30769 -6.15385 0
3.07692 -6.15385 0
3.84615 -6.15385 0
4.61538 -6.15385 0
5.38462 -6.15385 0
6.15385 -6.15385 0
6.92308 -6.15385 0
7.69231 -6.15385 0
8.46154 -6.15385 0
10 -6.15385 0
-10 -5.38462 0
-9.23077 -5.38462 0
-8.46154 -5.38462 0
-7.69231 -5.38462 0
-6.92308 -5.38462 0
-6.15385 -5.38462 0
-5.38462 -5.38462 0
-4.61538 -5.38462 0
-3.84615 -5.38462 0
-3.07692 -5.38462 0
-2.30769 -5.38462 0
-1.53846 -5.38462 0
-0.769231 -5.38462 0
5.55112e-016 -5.38462 0
0.769231 -5.38462 0
1.53846 -5.38462 0
2.30769 -5.38462 0
3.07692 -5.38462 0
3.84615 -5.38462 0
4.61538 -5.38462 0
5.38462 -5.38462 0
6.15385 -5.38462 0
6.92308 -5.38462 0
7.69231 -5.38462 0
8.46154 -5.38462 0
10 -5.38462 0
-10 -4.61538 0
-9.23077 -4.61538 0
-8.46154 -4.61538 0
-7.69231 -4.61538 0
-6.92308 -4.61538 0
-6.15385 -4.61538 0
-5.38462 -4.61538 0
-4.61538 -4.61538 0
-3.84615 -4.61538 0
-3.07692 -4.61538 0
-2.30769 -4.61538 0
-1.53846 -4.61538 0
-0.769231 -4.61538 0
5.55112e-016 -4.61538 0
0.769231 -4.61538 0
1.53846 -4.61538 0
2.30769 -4.61538 0
3.07692 -4.61538 0
3.84615 -4.61538 0
4.61538 -4.61538 0
5.38462 -4.61538 0
6.15385 -4.61538 0
6.92308 -4.61538 0
7.69231 -4.61538 0
8.46154 -4.61538 0
10 -4.61538 0
-10 -3.84615 0
-9.23077 -3.84615 0
-8.46154 -3.84615 0
-7.69231 -3.84615 0
-6.92308 -3.84615 0
-6.15385 -3.84615 0
-5.38462 -3.84615 0
-4.61538 -3.84615 0
-3.84615 -3.84615 0
-3.07692 -3.84615 0
-2.30769 -3.84615 0
-1.53846 -3.84615 0
-0.769231 -3.84615 0
5.55112e-016 -3.84615 0
0.769231 -3.84615 0
1.53846 -3.84615 0
2.30769 -3.84615 0
3.07692 -3.84615 0
3.84615 -3.84615 0
4.61538 -3.84615 0
5.38462 -3.84615 0
6.15385 -3.84615 0
6.92308 -3.84615 0
7.69231 -3.84615 0
8.46154 -3.84615 0
10 -3.84615 0
-10 -3.07692 0
-9.23077 -3.07692 0
-8.46154 -3.07692 0
-7.69231 -3.07692 0
-6.92308 -3.07692 0
-6.15385 -3.07692 0
-5.38462 -3.07692 0
-4.61538 -3.07692 0
-3.84615 -3.07692 0
-3.07692 -3.07692 0
-2.30769 -3.07692 0
-1.53846 -3.07692 0
-0.769231 -3.07692 0
5.55112e-016 -3.07692 0
0.769231 -3.07692 0
1.53846 -3.07692 0
2.30769 -3.07692 0
3.07692 -3.07692 0
3.84615 -3.07692 0
4.61538 -3.07692 0
5.38462 -3.07692 0
6.15385 -3.07692 0
6.92308 -3.07692 0
7.69231 -3.07692 0
8.46154 -3.07692 0
10 -3.07692 0
-10 -2.30769 0
-9.23077 -2.30769 0
-8.46154 -2.30769 0
-7.69231 -2.30769 0
-6.92308 -2.30769 0
-6.15385 -2.30769 0
-5.38462 -2.30769 0
-4.61538 -2.30769 0
-3.84615 -2.30769 0
-3.07692 -2.30769 0
-2.30769 -2.30769 0
-1.53846 -2.30769 0
-0.769231 -2.30769 0
5.55112e-016 -2.30769 0
0.769231 -2.30769 0
1.53846 -2.30769 0
2.30769 -2.30769 0
3.07692 -2.30769 0
3.84615 -2.30769 0
4.61538 -2.30769 0
5.38462 -2.30769 0
6.15385 -2.30769 0
6.92308 -2.30769 0
7.69231 -2.30769 0
8.46154 -2.30769 0
10 -2.30769 0
-10 -1.53846 0
-9.23077 -1.53846 0
-8.46154 -1.53846 0
-7.69231 -1.53846 0
-6.92308 -1.53846 0
-6.15385 -1.53846 0
-5.38462 -1.53846 0
-4.61538 -1.53846 0
-3.84615 -1.53846 0
-3.07692 -1.53846 0
-2.30769 -1.53846 0
-1.53846 -1.53846 0
-0.769231 -1.53846 0
5.55112e-016 -1.53846 0
0.769231 -1.53846 0
1.53846 -1.53846 0
2.30769 -1.53846 0
3.07692 -1.53846 0
3.84615 -1.53846 0
4.61538 -1.53846 0
5.38462 -1.53846 0
6.15385 -1.53846 0
6.92308 -1.53846 0
7.69231 -1.53846 0
8.46154 -1.53846 0
10 -1.53846 0
-10 -0.769231 0
-9.23077 -0.769231 0
-8.46154 -0.769231 0
-7.69231 -0.769231 0
-6.92308 -0.769231 0
-6.15385 -0.769231 0
-5.38462 -0.769231 0
-4.61538 -0.769231 0
-3.84615 -0.769231 0
-3.07692 -0.769231 0
-2.30769 -0.769231 0
-1.53846 -0.769231 0
-0.769231 -0.769231 0
5.55112e-016 -0.769231 0
0.769231 -0.769231 0
1.53846 -0.769231 0
2.30769 -0.769231 0
3.07692 -0.769231 0
3.84615 -0.769231 0
4.61538 -0.769231 0
5.38462 -0.769231 0
6.15385 -0.769231 0
6.92308 -0.769231 0
7.69231 -0.769231 0
8.46154 -0.769231 0
10 -0.769231 0
-10 5.55112e-016 0
-9.23077 5.55112e-016 0
-8.46154 5.55112e-016 0
-7.69231 5.55112e-016 0
-6.92308 5.55112e-016 0
-6.15385 5.55112e-016 0
-5.38462 5.55112e-016 0
-4.61538 5.55112e-016 0
-3.84615 5.55112e-016 0
-3.07692 5.55112e-016 0
-2.30769 5.55112e-016 0
-1.53846 5.55112e-016 0
-0.769231 5.55112e-016 0
5.55112e-016 5.55112e-016 0
0.769231 5.55112e-016 0
1.53846 5.55112e-016 0
2.30769 5.55112e-016 0
3.07692 5.55112e-016 0
3.84615 5.55112e-016 0
4.61538 5.55112e-016 0
5.38462 5.55112e-016 0
6.15385 5.55112e-016 0
6.92308 5.55112e-016 0
7.69231 5.55112e-016 0
8.46154 5.55112e-016 0
10 5.55112e-016 0
-10 0.769231 0
-9.23077 0.769231 0
-8.46154 0.769231 0
-7.69231 0.769231 0
-6.92308 0.769231 0
-6.15385 0.769231 0
-5.38462 0.769231 0
-4.61538 0.769231 0
-3.84615 0.769231 0
-3.07692 0.769231 0
-2.30769 0.769231 0
-1.53846 0.769231 0
-0.769231 0.769231 0
5.55112e-016 0.769231 0
0.769231 0.769231 0
1.53846 0.769231 0
2.30769 0.769231 0
3.07692 0.769231 0
3.84615 0.769231 0
4.61538 0.769231 0
5.38462 0.769231 0
6.15385 0.769231 0
6.92308 0.769231 0
7.69231 0.769231 0
8.46154 0.769231 0
10 0.769231 0
-10 1.53846 0
-9.23077 1.53846 0
-8.46154 1.53846 0
-7.69231 1.53846 0
-6.92308 1.53846 0
-6.15385 1.53846 0
-5.38462 1.53846 0
-4.61538 1.53846 0
-3.84615 1.53846 0
-3.07692 1.53846 0
-2.30769 1.53846 0
-1.53846 1.53846 0
-0.769231 1.53846 0
5.55112e-016 1.53846 0
0.769231 1.53846 0
1.53846 1.53846 0
2.30769 1.53846 0
3.07692 1.53846 0
3.84615 1.53846 0
4.61538 1.53846 0
5.38462 1.53846 0
6.15385 1.53846 0
6.92308 1.53846 0
7.69231 1.53846 0
8.46154 1.53846 0
10 1.53846 0
-10 2.30769 0
-9.23077 2.30769 0
-8.46154 2.30769 0
-7.69231 2.30769 0
-6.92308 2.30769 0
-6.15385 2.30769 0
-5.38462 2.30769 0
-4.61538 2.30769 0
-3.84615 2.30769 0
-3.07692 2.30769 0
-2.30769 2.30769 0
-1.53846 2.30769 0
-0.769231 2.30769 0
5.55112e-016 2.30769 0
0.769231 2.30769 0
1.53846 2.30769 0
2.30769 2.30769 0
3.07692 2.30769 0
3.84615 2.30769 0
4.61538 2.30769 0
5.38462 2.30769 0
6.15385 2.30769 0
6.92308 2.30769 0
7.69231 2.30769 0
8.46154 2.30769 0
10 2.30769 0
-10 3.07692 0
-9.23077 3.07692 0
-8.46154 3.07692 0
-7.69231 3.07692 0
-6.92308 3.07692 0
-6.15385 3.07692 0
-5.38462 3.07692 0
-4.61538 3.07692 0
-3.84615 3.07692 0
-3.07692 3.07692 0
-2.30769 3.07692 0
-1.53846 3.07692 0
-0.769231 3.07692 0
5.55112e-016 3.07692 0
0.769231 3.07692 0
1.53846 3.07692 0
2.30769 3.07692 0
3.07692 3.07692 0
3.84615 3.07692 0
4.61538 3.07692 0
5.38462 3.07692 0
6.15385 3.07692 0
6.92308 3.07692 0
7.69231 3.07692 0
8.46154 3.07692 0
10 3.07692 0
-10 3.84615 0
-9.23077 3.84615 0
-8.46154 3.84615 0
-7.69231 3.84615 0
-6.92308 3.84615 0
-6.15385 3.84615 0
-5.38462 3.84615 0
-4.61538 3.84615 0
-3.84615 3.84615 0
-3.07692 3.84615 0
-2.30769 3.84615 0
-1.53846 3.84615 0
-0.769231 3.84615 0
5.55112e-016 3.84615 0
0.769231 3.84615 0
1.53846 3.84615 0
2.30769 3.84615 0
3.07692 3.84615 0
3.84615 3.84615 0
4.61538 3.84615 0
5.38462 3.84615 0
6.15385 3.84615 0
6.92308 3.84615 0
7.69231 3.84615 0
8.46154 3.84615 0
10 3.84615 0
-10 4.61538 0
-9.23077 4.61538 0
-8.46154 4.61538 0
-7.69231 4.61538 0
-6.92308 4.61538 0
-6.15385 4.61538 0
-5.38462 4.61538 0
-4.61538 4.61538 0
-3.84615 4.61538 0
-3.07692 4.61538 0
-2.30769 4.61538 0
-1.53846 4.61538 0
-0.769231 4.61538 0
5.55112e-016 4.61538 0
0.769231 4.61538 0
1.53846 4.61538 0
2.30769 4.61538 0
3.07692 4.61538 0
3.84615 4.61538 0
4.61538 4.61538 0
5.38462 4.61538 0
6.15385 4.61538 0
6.92308 4.61538 0
7.69231 4.61538 0
8.46154 4.61538 0
10 4.61538 0
-10 5.38462 0
-9.23077 5.38462 0
-8.46154 5.38462 0
-7.69231 5.38462 0
-6.92308 5.38462 0
-6.15385 5.38462 0
-5.38462 5.38462 0
-4.61538 5.38462 0
-3.84615 5.38462 0
-3.07692 5.38462 0
-2.30769 5.38462 0
-1.53846 5.38462 0
-0.769231 5.38462 0
5.55112e-016 5.38462 0
0.769231 5.38462 0
1.53846 5.38462 0
2.30769 5.38462 0
3.07692 5.38462 0
3.84615 5.38462 0
4.61538 5.38462 0
5.38462 5.38462 0
6.15385 5.38462 0
6.92308 5.38462 0
7.69231 5.38462 0
8.46154 5.38462 0
10 5.38462 0
-10 6.15385 0
-9.23077 6.15385 0
-8.46154 6.15385 0
-7.69231 6.15385 0
-6.92308 6.15385 0
-6.15385 6.15385 0
-5.38462 6.15385 0
-4.61538 6.15385 0
-3.84615 6.15385 0
-3.07692 6.15385 0
-2.30769 6.15385 0
-1.53846 6.15385 0
-0.769231 6.15385 0
5.55112e-016 6.15385 0
0.769231 6.15385 0
1.53846 6.15385 0
2.30769 6.15385 0
3.07692 6.15385 0
3.84615 6.15385 0
4.61538 6.15385 0
5.38462 6.15385 0
6.15385 6.15385 0
6.92308 6.15385 0
7.69231 6.15385 0
8.46154 6.15385 0
10 6.15385 0
-10 6.92308 0
-9.23077 6.92308 0
-8.46154 6.92308 0
-7.69231 6.92308 0
-6.92308 6.92308 0
-6.15385 6.92308 0
-5.38462 6.92308 0
-4.61538 6.92308 0
-3.84615 6.92308 0
-3.07692 6.92308 0
-2.30769 6.92308 0
-1.53846 6.92308 0
-0.769231 6.92308 0
5.55112e-016 6.92308 0
0.769231 6.92308 0
1.53846 6.92308 0
2.30769 6.92308 0
3.07692 6.92308 0
3.84615 6.92308 0
4.61538 6.92308 0
5.38462 6.92308 0
6.15385 6.92308 0
6.92308 6.92308 0
7.69231 6.92308 0
8.46154 6.92308 0
10 6.92308 0
-10 7.69231 0
-9.23077 7.69231 0
-8.46154 7.69231 0
-7.69231 7.69231 0
-6.92308 7.69231 0
-6.15385 7.69231 0
-5.38462 7.69231 0
-4.61538 7.69231 0
-3.84615 7.69231 0
-3.07692 7.69231 0
-2.30769 7.69231 0
-1.53846 7.69231 0
-0.769231 7.69231 0
5.55112e-016 7.69231 0
0.769231 7.69231 0
1.53846 7.69231 0
2.30769 7.69231 0
3.07692 7.69231 0
3.84615 7.69231 0
4.61538 7.69231 0
5.38462 7.69231 0
6.15385 7.69231 0
6.92308 7.69231 0
7.69231 7.69231 0
8.46154 7.69231 0
10 7.69231 0
-10 8.46154 0
-9.23077 8.46154 0
-8.46154 8.46154 0
-7.69231 8.46154 0
-6.92308 8.46154 0
-6.15385 8.46154 0
-5.38462 8.46154 0
-4.61538 8.46154 0
-3.84615 8.46154 0
-3.07692 8.46154 0
-2.30769 8.46154 0
-1.53846 8.46154 0
-0.769231 8.46154 0
5.55112e-016 8.46154 0
0.769231 8.46154 0
1.53846 8.46154 0
2.30769 8.46154 0
3.07692 8.46154 0
3.84615 8.46154 0
4.61538 8.46154 0
5.38462 8.46154 0
6.15385 8.46154 0
6.92308 8.46154 0
7.69231 8.46154 0
8.46154 8.46154 0
10 8.46154 0
-10 10 0
-9.23077 10 0
-8.46154 10 0
-7.69231 10 0
-6.92308 10 0
-6.15385 10 0
-5.38462 10 0
-4.61538 10 0
-3.84615 10 0
-3.07692 10 0
-2.30769 10 0
-1.53846 10 0
-0.769231 10 0
5.55112e-016 10 0
0.769231 10 0
1.53846 10 0
2.30769 10 0
3.07692 10 0
3.84615 10 0
4.61538 10 0
5.38462 10 0
6.15385 10 0
6.92308 10 0
7.69231 10 0
8.46154 10 0
10 10 0

POINT_DATA 676
SCALARS h double 1
LOOkUP_TABLE default
0.00745042
0.0418114
0.109712
0.143827
0.139138
0.143243
0.197919
0.322486
0.501688
0.687508
0.817987
0.84368
0.754708
0.587012
0.400495
0.243839
0.135481
0.0700096
0.033807
0.0149477
0.00570854
0.00164298
0.000216488
0.000192144
0.00114559
0.00745042
0.0108579
0.0655618
0.171833
0.244538
0.25693
0.267864
0.349062
0.549148
0.864035
1.22841
1.53445
1.66852
1.56933
1.27403
0.897953
0.557307
0.310387
0.157786
0.0737119
0.0312417
0.011474
0.00326054
0.000519453
0.00022161
0.00149316
0.0108579
0.0158801
0.0936782
0.24457
0.361311
0.389181
0.391364
0.463066
0.685841
1.09057
1.62566
2.15289
2.47849
2.44866
2.06422
1.48962
0.930842
0.511855
0.251494
0.111298
0.0440402
0.0150152
0.00394798
0.000526994
0.000261561
0.00184466
0.0158801
0.0166522
0.101582
0.274044
0.416839
0.449494
0.42758
0.447811
0.600556
0.950514
1.49241
2.11149
2.58483
2.68277
2.33913
1.71468
1.06619
0.569858
0.265195
0.108241
0.0385709
0.0116627
0.00272744
0.000333502
0.000240107
0.0018658
0.0166522
0.0119608
0.0800018
0.23179
0.365077
0.390345
0.348423
0.31841
0.367387
0.557889
0.921656
1.40581
1.84381
2.01849
1.82126
1.35226
0.831481
0.427815
0.186022
0.0686884
0.0214269
0.00550945
0.001077
0.000101527
0.000149659
0.00137546
0.0119608
0.00633327
0.0469502
0.151949
0.251045
0.264943
0.220207
0.174518
0.163941
0.221378
0.379799
0.634739
0.906525
1.05876
0.996008
0.752657
0.459132
0.228036
0.0929494
0.0311911
0.00855713
0.00185439
0.000268344
8.45402e-005
7.56044e-005
0.000756297
0.00633327
0.00278981
0.0216638
0.0817903
0.145071
0.151231
0.115358
0.0783895
0.0573616
0.0598408
0.100116
0.189441
0.307902
0.39748
0.400421
0.314394
0.193596
0.0943695
0.0367118
0.0114102
0.00276945
0.000465899
4.30579e-005
8.75098e-005
0.000203786
0.000232827
0.00278981
0.00111122
0.00858308
0.0382848
0.0754088
0.0787205
0.0541798
0.0304971
0.016837
0.0114573
0.0150412
0.0334308
0.0670521
0.103588
0.120255
0.104993
0.0696103
0.0354944
0.0140614
0.00431364
0.000973765
0.000123958
1.46608e-005
4.70138e-005
6.5425e-005
4.4456e-005
0.00111122
0.0013621
0.00490179
0.0162783
0.0366301
0.0397051
0.0246591
0.0108456
0.00418308
0.00181463
0.00177379
0.00428104
0.00999442
0.0189882
0.0274518
0.0297281
0.0243162
0.0152781
0.00746592
0.00279683
0.00074741
0.000112588
0.000100582
0.000320114
0.00036539
0.000209981
0.0013621
0.00418712
0.00890295
0.00703302
0.0163156
0.0196676
0.0114306
0.00373925
0.000759766
0.000508802
0.000949234
0.00198673
0.00370614
0.00618242
0.00897057
0.0108081
0.0103663
0.00764603
0.0041664
0.00155343
0.000603977
0.000467567
0.000900071
0.00146479
0.00172006
0.00106934
0.00418712
0.00725373
0.0145663
0.00445015
0.00618095
0.00928135
0.00541815
0.0013869
0.000221992
0.000470256
0.000967754
0.00184188
0.00309056
0.00455068
0.0058184
0.00626512
0.00534261
0.00320863
0.00108061
0.000393973
0.000329378
0.000787331
0.00194627
0.00357283
0.00419729
0.00249977
0.00725373
0.0086861
0.0175994
0.00403846
0.00195284
0.00411488
0.00265552
0.000739547
0.000426143
0.000704335
0.00119351
0.00193072
0.00285716
0.00376042
0.00426755
0.00397784
0.00277786
0.0011625
0.000144615
5.3293e-005
0.000212918
0.00101901
0.00315705
0.00633437
0.00729934
0.00398295
0.0086861
0.00833353
0.0174139
0.0038078
0.00109551
0.00207964
0.00161217
0.000837517
0.000874333
0.00124239
0.00175673
0.00234977
0.002926
0.0033086
0.00325443
0.00260112
0.00149842
0.000462911
1.25587e-005
2.48095e-005
0.000216543
0.00129259
0.00441267
0.00907196
0.0101511
0.00505993
0.00833353
0.00713711
0.0155557
0.00384591
0.00174083
0.00191753
0.00163042
0.00136453
0.00164901
0.00221414
0.00280198
0.00323204
0.00340184
0.00324567
0.00271337
0.00184762
0.000895418
0.000222279
-1.83194e-005
2.35072e-005
0.000231325
0.0014949
0.00533924
0.0109712
0.0119291
0.00553702
0.00713711
0.00603488
0.0138706
0.00495325
0.003051
0.00268566
0.00226747
0.00224007
0.00284497
0.00373152
0.00444262
0.00466565
0.00432814
0.00355246
0.00253089
0.00147148
0.000613314
0.000136804
5.23618e-006
2.53778e-005
0.000241271
0.00155049
0.00561933
0.0114819
0.0122149
0.00543722
0.00603488
0.00541026
0.0132669
0.00697537
0.00484304
0.00387303
0.00323167
0.00342878
0.00450494
0.00585417
0.00673496
0.0066853
0.00570738
0.00418881
0.00261017
0.00131802
0.000483907
0.000102781
9.43873e-006
2.10534e-005
0.000247006
0.00149472
0.0052995
0.0106764
0.0111556
0.00491927
0.00541026
0.00583219
0.0139595
0.00970579
0.00701034
0.00524464
0.00435869
0.00490191
0.00666104
0.00863277
0.00971187
0.00928999
0.00751529
0.00511525
0.00289076
0.001309
0.000439984
9.8022e-005
1.09162e-005
2.10675e-005
0.000205588
0.0013328
0.00471672
0.00937203
0.00961715
0.00443239
0.00583219
0.0084506
0.0173662
0.0136821
0.00961761
0.00667919
0.00551223
0.00661727
0.00940511
0.0122312
0.013502
0.0125134
0.00972743
0.00629333
0.00332918
0.00139716
0.000452298
0.000131786
3.2176e-005
1.22732e-005
0.000130928
0.000967835
0.00386851
0.00807065
0.00850451
0.00459883
0.0084506
0.0132778
0.0248243
0.0200703
0.0131518
0.00817087
0.00637963
0.00816713
0.0126079
0.0169422
0.0184085
0.0164551
0.012326
0.00769296
0.0039448
0.00165063
0.000508862
0.000196534
0.000198956
7.50439e-005
6.67325e-005
0.000418782
0.00246277
0.0062007
0.00738754
0.0052632
0.0132778
0.0179576
0.0354635
0.030057
0.0186167
0.0100111
0.00646053
0.00806077
0.0139856
0.0219784
0.0246858
0.0211165
0.0152612
0.00950514
0.00463532
0.00201783
0.000671689
0.00050495
0.000525951
0.000398917
0.000272731
0.000346631
0.000909839
0.00326412
0.00524825
0.00533683
0.0179576
0.019333
0.0454242
0.043179
0.0268584
0.0129206
0.00597044
0.00537117
0.00970836
0.0225076
0.0318474
0.0268207
0.0174584
0.0116625
0.00596563
0.00227426
0.00114036
0.000629939
0.000328468
0.000191301
0.000149934
0.000177632
0.000371986
0.000926137
0.00230498
0.00374031
0.019333
0.0169586
0.0493964
0.0557003
0.0365483
0.0163179
0.00489923
0.00126233
0.0019959
0.00722359
0.0221789
0.0252324
0.0107657
0.0016933
0.00119094
0.000936992
0.000842655
0.000826358
0.00069004
0.000234185
3.46151e-005
4.83276e-006
2.36887e-005
5.79886e-005
0.000657812
0.00226348
0.0169586
0.0127504
0.0448618
0.0615967
0.0432044
0.0182944
0.00428148
0.00150125
0.00365696
0.00291831
0.00430124
0.0266767
0.0237182
0.0170447
0.0128479
0.00874675
0.00528334
0.00299766
0.00160633
0.000758976
0.000310157
0.000104231
2.25469e-005
5.33141e-005
0.000354255
0.00184827
0.0127504
0.00929571
0.0382796
0.0690677
0.0604447
0.0359963
0.0230293
0.0268864
0.0452728
0.074689
0.108047
0.13634
0.137072
0.116947
0.0876446
0.0578938
0.034253
0.0187336
0.00968187
0.00474692
0.00214788
0.00083509
0.000235385
1.71768e-005
0.000263434
0.0015264
0.00929571
0.00743919
0.0349052
0.0806872
0.0889863
0.0712671
0.0648985
0.0892382
0.14859
0.232551
0.315893
0.367847
0.365792
0.314143
0.235441
0.155638
0.0925074
0.0507912
0.0263379
0.0129529
0.00588616
0.00231711
0.000688733
9.36955e-005
0.000185946
0.00124694
0.00743919
0.00745042
0.0418114
0.109712
0.143827
0.139138
0.143243
0.197919
0.322486
0.501688
0.687508
0.817987
0.84368
0.754708
0.587012
0.400495
0.243839
0.135481
0.0700096
0.033807
0.0149477
0.00570854
0.00164298
0.000216488
0.000192144
0.00114559
0.00745042

VECTORS u double
2.19972 51.252 0.0
-10.1878 57.2137 0.0
-19.9977 61.6589 0.0
-28.6817 64.7853 0.0
-37.2482 65.8225 0.0
-45.7173 63.5097 0.0
-53.8813 59.6486 0.0
-60.5428 58.0249 0.0
-65.7496 58.6133 0.0
-70.4783 60.1451 0.0
-75.5245 61.7544 0.0
-81.1661 62.9304 0.0
-87.1223 63.3961 0.0
-92.7842 63.05 0.0
-97.4168 61.8789 0.0
-100.422 59.9057 0.0
-101.557 57.2125 0.0
-100.947 53.9798 0.0
-98.9364 50.4856 0.0
-95.7942 47.0232 0.0
-91.2824 43.7829 0.0
-83.4543 40.6907 0.0
-52.7168 35.8305 0.0
44.2311 45.6533 0.0
15.9976 47.2465 0.0
2.19972 51.252 0.0
-5.16976 59.5202 0.0
-17.3709 64.099 0.0
-25.3799 66.9333 0.0
-32.5954 68.3305 0.0
-39.2068 67.5909 0.0
-45.4912 64.3714 0.0
-52.704 60.2689 0.0
-59.7725 58.5123 0.0
-65.3922 59.3348 0.0
-70.1389 61.2549 0.0
-74.9296 63.1226 0.0
-80.2107 64.2961 0.0
-85.8639 64.478 0.0
-91.352 63.5874 0.0
-95.9693 61.67 0.0
-99.1482 58.8453 0.0
-100.65 55.2961 0.0
-100.559 51.2762 0.0
-99.1427 47.0979 0.0
-96.6398 43.0785 0.0
-92.9813 39.4699 0.0
-86.8862 36.4499 0.0
-65.3735 34.9616 0.0
45.2894 55.6019 0.0
11.6192 56.2571 0.0
-5.16976 59.5202 0.0
-10.5919 59.628 0.0
-21.6337 62.4403 0.0
-28.7779 64.3974 0.0
-34.8994 64.8793 0.0
-40.1263 63.3541 0.0
-44.844 59.9498 0.0
-51.0777 55.7944 0.0
-58.615 53.6815 0.0
-64.952 54.4764 0.0
-69.9341 56.6246 0.0
-74.6022 58.6939 0.0
-79.6086 59.9198 0.0
-84.9685 59.9685 0.0
-90.2283 58.7539 0.0
-94.7425 56.3484 0.0
-97.9855 52.9289 0.0
-99.7307 48.7412 0.0
-100.035 44.0803 0.0
-99.104 39.2703 0.0
-97.1158 34.637 0.0
-93.9583 30.4927 0.0
-88.1221 27.2276 0.0
-62.3655 27.0205 0.0
42.7164 61.6583 0.0
6.88509 57.63 0.0
-10.5919 59.628 0.0
-11.7727 55.4489 0.0
-22.9559 56.9823 0.0
-29.9924 58.1253 0.0
-35.7097 58.0621 0.0
-40.2608 56.2639 0.0
-43.9391 53.0091 0.0
-48.9877 49.0202 0.0
-56.7481 46.4369 0.0
-64.1241 46.911 0.0
-69.6246 49.0886 0.0
-74.3141 51.268 0.0
-79.1187 52.5788 0.0
-84.2107 52.653 0.0
-89.2301 51.3765 0.0
-93.5998 48.8114 0.0
-96.8391 45.1502 0.0
-98.738 40.6636 0.0
-99.3392 35.6571 0.0
-98.8055 30.4402 0.0
-97.2582 25.3125 0.0
-94.5217 20.5906 0.0
-89.0092 16.792 0.0
-63.3833 17.0872 0.0
41.2405 61.6696 0.0
6.48462 55.1973 0.0
-11.7727 55.4489 0.0
-9.61817 51.3636 0.0
-21.9457 51.7739 0.0
-29.2855 52.06 0.0
-35.0608 51.4894 0.0
-39.4958 49.5236 0.0
-42.6548 46.4448 0.0
-46.4174 42.7442 0.0
-53.6857 39.674 0.0
-62.2907 39.473 0.0
-68.7198 41.4301 0.0
-73.6532 43.5823 0.0
-78.3791 44.9546 0.0
-83.2814 45.162 0.0
-88.107 44.0559 0.0
-92.3493 41.6601 0.0
-95.5705 38.1445 0.0
-97.5766 33.7685 0.0
-98.4007 28.8212 0.0
-98.1752 23.5777 0.0
-96.9746 18.2853 0.0
-94.5434 13.2175 0.0
-88.7569 9.06744 0.0
-45.206 13.0563 0.0
35.5916 54.8709 0.0
8.79776 52.2523 0.0
-9.61817 51.3636 0.0
-4.8862 48.8806 0.0
-18.9149 48.5848 0.0
-26.8822 48.1515 0.0
-32.9639 47.0852 0.0
-37.6722 44.8922 0.0
-40.8331 41.8291 0.0
-43.5423 38.3596 0.0
-49.1045 34.8758 0.0
-58.3361 33.5594 0.0
-66.1925 35.0083 0.0
-71.8029 37.0111 0.0
-76.7559 38.3929 0.0
-81.7036 38.7767 0.0
-86.5148 37.9951 0.0
-90.7556 36.0228 0.0
-94.0311 32.9782 0.0
-96.1601 29.08 0.0
-97.1591 24.5838 0.0
-97.1038 19.7331 0.0
-95.908 14.7325 0.0
-92.7578 9.69084 0.0
-83.7296 4.01942 0.0
-44.0721 5.18365 0.0
18.8136 20.1687 0.0
11.5343 47.9815 0.0
-4.8862 48.8806 0.0
0.473348 46.6745 0.0
-13.9622 47.0506 0.0
-22.9354 46.4267 0.0
-29.4552 44.9977 0.0
-34.6475 42.5227 0.0
-38.2769 39.2329 0.0
-40.6126 35.7305 0.0
-43.6583 31.9133 0.0
-50.9567 28.869 0.0
-59.9098 29.3016 0.0
-66.6583 31.1905 0.0
-72.3418 32.6287 0.0
-77.8244 33.2237 0.0
-83.0756 32.8454 0.0
-87.7129 31.4472 0.0
-91.3689 29.0929 0.0
-93.8632 25.9415 0.0
-95.1683 22.1969 0.0
-95.2085 18.0509 0.0
-93.4023 13.5804 0.0
-86.2868 8.03061 0.0
-4.62554 -16.6152 0.0
17.6325 -12.649 0.0
-12.1315 -3.14734 0.0
4.469 26.7505 0.0
0.473348 46.6745 0.0
5.73501 36.3717 0.0
-6.49776 42.7277 0.0
-17.3761 45.7125 0.0
-24.635 44.545 0.0
-30.3423 41.905 0.0
-34.6947 38.2202 0.0
-37.5428 34.2859 0.0
-38.9304 30.0659 0.0
-41.0641 24.7332 0.0
-47.4722 22.4546 0.0
-54.6607 24.3771 0.0
-61.171 26.1982 0.0
-67.2807 27.1421 0.0
-73.0433 27.1853 0.0
-78.1567 26.3511 0.0
-82.2979 24.7164 0.0
-85.3196 22.4243 0.0
-87.2581 19.6666 0.0
-88.2019 16.6395 0.0
-87.7211 13.3175 0.0
-82.1573 8.27868 0.0
67.2972 -20.6537 0.0
8.55743 -11.8863 0.0
-14.7117 -9.59164 0.0
-7.55403 6.97992 0.0
5.73501 36.3717 0.0
8.28703 9.91598 0.0
2.46614 20.692 0.0
-9.78251 41.7638 0.0
-18.8242 44.6323 0.0
-24.9896 42.3942 0.0
-29.9104 38.4278 0.0
-33.8041 33.7037 0.0
-35.0606 28.269 0.0
-29.4365 18.7887 0.0
-23.169 10.739 0.0
-27.4283 12.6828 0.0
-34.6486 15.6334 0.0
-41.5328 17.6517 0.0
-47.157 18.4619 0.0
-51.1585 18.1772 0.0
-53.3411 16.9757 0.0
-53.8281 15.0672 0.0
-53.4051 12.7898 0.0
-53.8541 10.8877 0.0
-55.3195 10.252 0.0
-38.9519 9.05206 0.0
13.6864 9.06151 0.0
-9.62295 9.77541 0.0
-10.6902 9.66144 0.0
-8.69021 9.10439 0.0
8.28703 9.91598 0.0
7.10325 8.37291 0.0
3.1954 9.11684 0.0
-1.67549 26.6025 0.0
-12.7703 43.7418 0.0
-19.2991 43.1886 0.0
-24.3149 39.3527 0.0
-28.8774 33.7705 0.0
-30.1617 23.5402 0.0
-15.7126 10.5538 0.0
-12.2654 8.3407 0.0
-11.6637 8.54689 0.0
-12.1191 8.95395 0.0
-14.0211 9.52734 0.0
-16.8797 10.0032 0.0
-19.5775 10.0169 0.0
-21.2382 9.32694 0.0
-21.5442 7.76846 0.0
-20.4887 5.0548 0.0
-19.1997 1.84373 0.0
-21.3725 5.37244 0.0
-13.2721 9.66282 0.0
-10.3047 10.592 0.0
-11.3513 12.0613 0.0
-11.0848 12.1397 0.0
-8.23807 11.3103 0.0
7.10325 8.37291 0.0
6.91433 9.25146 0.0
2.38101 9.68196 0.0
1.16128 12.1027 0.0
-7.29388 40.4498 0.0
-13.9793 43.3944 0.0
-18.684 40.0672 0.0
-22.4873 33.2984 0.0
-15.8992 14.7913 0.0
-12.9174 13.3637 0.0
-12.0139 12.0306 0.0
-11.1516 11.2821 0.0
-10.6073 10.7155 0.0
-10.6367 10.1739 0.0
-11.2923 9.55653 0.0
-12.3012 8.74274 0.0
-13.1689 7.52388 0.0
-13.2994 5.33725 0.0
-10.8241 -1.37775 0.0
-9.69138 -3.16575 0.0
-9.05687 2.78961 0.0
-9.06308 9.98933 0.0
-11.088 12.439 0.0
-11.7391 13.7728 0.0
-11.5562 13.8154 0.0
-8.80427 12.8369 0.0
6.91433 9.25146 0.0
7.42901 10.0809 0.0
2.40879 10.6145 0.0
1.22982 10.226 0.0
-2.55357 32.9354 0.0
-9.25018 41.6155 0.0
-13.5954 38.9676 0.0
-15.5255 30.2905 0.0
-13.2191 21.9443 0.0
-12.8456 19.1741 0.0
-12.0493 16.8953 0.0
-11.2623 15.0871 0.0
-10.7616 13.6432 0.0
-10.75 12.3859 0.0
-11.2459 11.1445 0.0
-11.9954 9.76917 0.0
-12.5762 8.06821 0.0
-12.4186 5.3725 0.0
-3.42775 -17.2861 0.0
-6.72178 -2.70481 0.0
-8.92554 8.10291 0.0
-10.015 12.5245 0.0
-11.5177 14.3429 0.0
-12.0043 15.1224 0.0
-12.085 15.163 0.0
-9.81551 14.2103 0.0
7.42901 10.0809 0.0
8.3414 10.9873 0.0
2.9282 11.6257 0.0
1.61618 11.3846 0.0
-0.964241 24.0071 0.0
-6.36802 35.8605 0.0
-10.7842 34.6044 0.0
-13.4792 28.4229 0.0
-13.764 25.6639 0.0
-13.1054 23.8122 0.0
-12.2751 21.7641 0.0
-11.5159 19.5707 0.0
-11.0491 17.4311 0.0
-11.0561 15.438 0.0
-11.5493 13.545 0.0
-12.2778 11.6327 0.0
-12.8421 9.53236 0.0
-12.8172 6.83674 0.0
8.8169 -44.1002 0.0
-6.90996 4.55888 0.0
-9.39189 12.7598 0.0
-10.5032 14.5002 0.0
-11.628 15.6478 0.0
-12.2337 16.1799 0.0
-12.5996 16.2635 0.0
-10.9572 15.4507 0.0
8.3414 10.9873 0.0
9.26017 12.1695 0.0
3.47694 12.9492 0.0
1.18155 14.7558 0.0
-4.08954 25.7085 0.0
-8.1977 31.4108 0.0
-12.0681 31.3937 0.0
-14.4282 29.1997 0.0
-14.3183 28.0225 0.0
-13.5524 27.0017 0.0
-12.717 25.6328 0.0
-11.9653 23.8021 0.0
-11.503 21.5908 0.0
-11.5057 19.1795 0.0
-11.9917 16.7294 0.0
-12.7204 14.2897 0.0
-13.309 11.7896 0.0
-13.439 9.06877 0.0
-7.99186 -3.81579 0.0
-8.41992 12.1493 0.0
-9.29642 14.3166 0.0
-10.4583 15.4668 0.0
-11.6157 16.4793 0.0
-12.4393 17.0105 0.0
-13.0391 17.1575 0.0
-11.9468 16.5255 0.0
9.26017 12.1695 0.0
9.68145 13.9179 0.0
3.42057 15.0145 0.0
-0.896326 20.0636 0.0
-7.18314 29.2238 0.0
-11.116 31.9559 0.0
-14.0864 31.5946 0.0
-15.2993 30.4124 0.0
-14.8615 29.7694 0.0
-14.1084 29.2894 0.0
-13.3039 28.5192 0.0
-12.5735 27.2692 0.0
-12.1202 25.4562 0.0
-12.1178 23.1235 0.0
-12.5953 20.4488 0.0
-13.3308 17.6418 0.0
-13.9651 14.8288 0.0
-14.2107 12.1408 0.0
-14.142 20.5494 0.0
-8.81647 13.9386 0.0
-9.54743 15.1517 0.0
-10.5653 16.1291 0.0
-11.687 17.1096 0.0
-12.6318 17.6965 0.0
-13.3609 17.903 0.0
-12.5344 17.4459 0.0
9.68145 13.9179 0.0
9.09984 16.4655 0.0
2.16947 18.1353 0.0
-4.00294 25.2869 0.0
-9.92604 32.1521 0.0
-13.2816 33.4587 0.0
-15.4854 32.6194 0.0
-15.9619 31.5735 0.0
-15.4132 31.2434 0.0
-14.7249 31.1206 0.0